[Molden Format]
Generated by Polyquant
[Atoms] (AU)
   H     1     1             0             0      0.709592
   H     2     1             0             0     -0.709592
[GTO]
   1   0
   f     1  1.00
    5.0000000000E-01    1.0000000000E+00

   2   0
   f     1  1.00
    5.0000000000E-01    1.0000000000E+00

[5D]
[7F]
[9G]

[MO]
  Sym= A
  Ene=     1.3398009858E+00
  Spin= Alpha
  Occup=     1.0000000000E+00
             1    7.7362221496E-01
             2    3.6952396156E-16
             3   -7.2229030280E-16
             4   -3.0179902406E-16
             5    1.1527351746E-15
             6   -5.4361398984E-16
             7   -1.5223948587E-16
             8    7.7362221496E-01
             9    9.7164952720E-16
            10    2.0142123226E-16
            11   -4.0447333971E-16
            12    9.1629157220E-16
            13    8.5380206039E-16
            14   -1.5223948587E-16
  Sym= A
  Ene=     1.8037510223E+00
  Spin= Alpha
  Occup=     0.0000000000E+00
             1   -9.7643482604E-16
             2    1.5040161202E-14
             3    6.5456422761E-16
             4   -4.3501422195E-02
             5    7.0727988162E-01
             6   -4.8952769081E-17
             7    1.4301977209E-16
             8   -1.5909898340E-15
             9    1.5446759309E-14
            10    9.6463221186E-16
            11   -4.3501422195E-02
            12    7.0727988162E-01
            13    4.6965470845E-17
            14    7.0974574591E-17
  Sym= A
  Ene=     1.8037510223E+00
  Spin= Alpha
  Occup=     0.0000000000E+00
             1    1.0902293798E-15
             2   -3.8009589985E-16
             3    8.0489817476E-16
             4    7.0727988162E-01
             5    4.3501422195E-02
             6   -7.3985808853E-16
             7    8.9675438093E-17
             8   -1.7292466308E-16
             9    2.6599845419E-16
            10    6.9298954490E-16
            11    7.0727988162E-01
            12    4.3501422195E-02
            13   -1.8412587932E-15
            14   -1.1025489994E-16
  Sym= A
  Ene=     1.8393352148E+00
  Spin= Alpha
  Occup=     0.0000000000E+00
             1   -9.5744895231E-16
             2    7.5461793900E-01
             3    3.8804503502E-02
             4    1.3038596751E-15
             5   -1.5153650017E-14
             6    1.3677172124E-15
             7   -4.6436394552E-17
             8   -3.4151089487E-16
             9    7.5461793900E-01
            10    3.8804503502E-02
            11    8.3485090489E-16
            12   -1.4140127910E-14
            13    4.8596603178E-15
            14   -3.6999841058E-16
  Sym= A
  Ene=     1.8393352148E+00
  Spin= Alpha
  Occup=     0.0000000000E+00
             1    9.8360566733E-17
             2   -3.8804503502E-02
             3    7.5461793900E-01
             4   -8.3817958754E-16
             5   -1.1104872798E-16
             6   -2.7107571384E-16
             7    9.3036825414E-17
             8    7.2145948838E-16
             9   -3.8804503502E-02
            10    7.5461793900E-01
            11   -9.0907618722E-16
            12   -1.2710760981E-16
            13    6.0887071748E-17
            14   -6.1941487147E-15
  Sym= A
  Ene=     1.9461074095E+00
  Spin= Alpha
  Occup=     0.0000000000E+00
             1    3.2482344093E-16
             2   -4.6746018546E-15
             3   -7.8093586214E-17
             4    1.1269372646E-15
             5    1.6625109432E-16
             6    5.5825013641E-01
             7    6.1245529776E-16
             8   -8.5217173731E-16
             9   -3.6027034771E-15
            10   -7.0653665009E-17
            11    2.3908752285E-15
            12    3.7442045870E-17
            13    5.5825013641E-01
            14    6.1245529776E-16
  Sym= A
  Ene=     1.9461074095E+00
  Spin= Alpha
  Occup=     0.0000000000E+00
             1    1.7925193584E-16
             2   -4.1033329959E-15
             3    5.1551699877E-15
             4   -7.7989330955E-16
             5   -1.2341109705E-15
             6   -3.4999955871E-16
             7    5.5825013641E-01
             8    1.5561706851E-16
             9    4.2298972302E-15
            10    2.6689082429E-15
            11    8.1056577915E-16
            12    9.5846623243E-16
            13   -8.7491103681E-16
            14    5.5825013641E-01
  Sym= A
  Ene=     2.0721910148E+00
  Spin= Alpha
  Occup=     0.0000000000E+00
             1    6.5524383986E-01
             2    4.4658672477E-17
             3    5.9324835485E-16
             4   -1.6087142798E-15
             5   -1.2941693208E-15
             6    2.9696516665E-17
             7   -3.8493042901E-18
             8   -6.5524383986E-01
             9    6.4384201854E-16
            10    2.5586324519E-16
            11    4.5612736220E-17
            12    6.9813159307E-16
            13   -1.0887150738E-15
            14   -1.5131590894E-17
  Sym= A
  Ene=     2.1575078809E+00
  Spin= Alpha
  Occup=     0.0000000000E+00
             1   -5.0317106727E-16
             2    5.6873235165E-02
             3   -6.6445268930E-01
             4    2.1875776148E-15
             5   -2.5284625772E-15
             6   -7.3874660944E-16
             7    1.6454236856E-15
             8   -9.0471084965E-16
             9   -5.6873235165E-02
            10    6.6445268930E-01
            11   -2.0482438077E-15
            12    2.0900871133E-15
            13    8.0290549435E-16
            14    1.1384877425E-15
  Sym= A
  Ene=     2.1575078809E+00
  Spin= Alpha
  Occup=     0.0000000000E+00
             1   -7.8005752478E-16
             2   -6.6445268930E-01
             3   -5.6873235165E-02
             4    2.2940799224E-15
             5    1.2876471681E-16
             6   -2.6042711523E-15
             7   -3.5067043107E-15
             8   -1.8718579126E-16
             9    6.6445268930E-01
            10    5.6873235165E-02
            11   -3.1674900334E-15
            12   -5.9030117049E-16
            13    1.7816719014E-15
            14   -3.6737460370E-15
  Sym= A
  Ene=     2.2870901133E+00
  Spin= Alpha
  Occup=     0.0000000000E+00
             1    1.0997395128E-15
             2    2.4788527141E-15
             3    6.8758570268E-16
             4    5.8672145765E-01
             5    3.9196790961E-01
             6    5.8513550889E-16
             7    1.0877349176E-15
             8   -1.3870032513E-15
             9   -2.1441010361E-15
            10   -7.6687263254E-16
            11   -5.8672145765E-01
            12   -3.9196790961E-01
            13    3.2915823638E-16
            14    1.0753480919E-15
  Sym= A
  Ene=     2.2870901133E+00
  Spin= Alpha
  Occup=     0.0000000000E+00
             1   -3.0779310930E-16
             2   -9.8853807521E-19
             3    3.1560766508E-15
             4    3.9196790961E-01
             5   -5.8672145765E-01
             6    1.5934921163E-16
             7   -3.1916702088E-16
             8    4.4301818496E-16
             9   -1.8257237531E-15
            10   -3.1958277308E-15
            11   -3.9196790961E-01
            12    5.8672145765E-01
            13    5.7429128974E-16
            14   -3.6670587165E-16
  Sym= A
  Ene=     2.4923514985E+00
  Spin= Alpha
  Occup=     0.0000000000E+00
             1    3.9458483724E-17
             2    1.9107066944E-16
             3    3.2010609320E-16
             4    5.2100658512E-16
             5    2.0386114330E-16
             6   -1.1242326716E+00
             7    1.7028645003E-16
             8   -7.4028202825E-16
             9   -2.4985055332E-15
            10   -7.9666312805E-16
            11    4.2323895913E-16
            12   -1.8350826252E-16
            13    1.1242326716E+00
            14    1.7028645003E-16
  Sym= A
  Ene=     2.4923514985E+00
  Spin= Alpha
  Occup=     0.0000000000E+00
             1    3.2878642400E-18
             2   -3.6454041420E-17
             3    2.1263004346E-15
             4    7.3016005394E-17
             5    1.6285128547E-17
             6   -6.5319366401E-31
             7   -1.1242326716E+00
             8   -3.2878642400E-18
             9    3.6627126917E-17
            10    2.5012866512E-15
            11    4.9976895235E-17
            12    3.6776283301E-17
            13    1.5530334597E-30
            14    1.1242326716E+00
  Sym= A
  Ene=     1.3398009858E+00
  Spin= Beta
  Occup=     1.0000000000E+00
             1    7.7362221496E-01
             2   -1.1088749363E-16
             3   -1.6225838625E-15
             4   -6.6028095898E-16
             5    1.0090832528E-15
             6    5.7290839532E-16
             7    2.0729382355E-16
             8    7.7362221496E-01
             9    2.2148091782E-16
            10   -8.3140357529E-16
            11   -7.3325612164E-16
            12    1.0176427012E-15
            13   -2.6272032477E-16
            14    2.0729382355E-16
  Sym= A
  Ene=     1.8037510223E+00
  Spin= Beta
  Occup=     0.0000000000E+00
             1   -4.4256959323E-16
             2   -9.7276924994E-15
             3   -2.5338163032E-16
             4   -1.5419206045E-01
             5    6.9163719765E-01
             6   -2.5239154386E-17
             7    3.6976047345E-16
             8   -2.2847034572E-15
             9   -1.1121565804E-14
            10    6.2341027795E-16
            11   -1.5419206045E-01
            12    6.9163719765E-01
            13    4.2860437322E-16
            14    3.2845769576E-16
  Sym= A
  Ene=     1.8037510223E+00
  Spin= Beta
  Occup=     0.0000000000E+00
             1    1.7969623554E-15
             2    1.4127918730E-14
             3   -2.0976513120E-15
             4    6.9163719765E-01
             5    1.5419206045E-01
             6   -8.7915384598E-16
             7    5.5492363858E-18
             8   -4.4629113270E-16
             9    1.5107655801E-14
            10   -2.2201391265E-15
            11    6.9163719765E-01
            12    1.5419206045E-01
            13   -1.6812044846E-15
            14   -2.4068817746E-16
  Sym= A
  Ene=     1.8393352148E+00
  Spin= Beta
  Occup=     0.0000000000E+00
             1   -2.1797611288E-16
             2    7.5536413000E-01
             3    1.9469320973E-02
             4   -1.5828731071E-14
             5    7.7249987844E-15
             6    1.7591353820E-15
             7   -2.2591990920E-16
             8    7.7757716049E-17
             9    7.5536413000E-01
            10    1.9469320973E-02
            11   -1.5509615756E-14
            12    5.8491430956E-15
            13    4.4632917091E-15
            14   -3.8736314785E-16
  Sym= A
  Ene=     1.8393352148E+00
  Spin= Beta
  Occup=     0.0000000000E+00
             1    1.1683614420E-15
             2   -1.9469320973E-02
             3    7.5536413000E-01
             4    2.5734254220E-15
             5    5.1714086924E-17
             6   -2.2964566708E-16
             7   -1.3214781245E-15
             8    1.6158595944E-15
             9   -1.9469320973E-02
            10    7.5536413000E-01
            11    2.2732586295E-15
            12    1.3942028331E-16
            13    1.7325735278E-16
            14   -7.6162901615E-15
  Sym= A
  Ene=     1.9461074095E+00
  Spin= Beta
  Occup=     0.0000000000E+00
             1    3.0871648825E-16
             2   -4.6645490062E-15
             3   -7.0572006498E-17
             4    1.1331535887E-15
             5    1.7018029155E-16
             6    5.5825013641E-01
             7   -1.3762305140E-15
             8   -8.3606478463E-16
             9   -3.6017379767E-15
            10   -7.0140400322E-17
            11    2.3981818436E-15
            12    3.7304528170E-17
            13    5.5825013641E-01
            14   -1.3762305140E-15
  Sym= A
  Ene=     1.9461074095E+00
  Spin= Beta
  Occup=     0.0000000000E+00
             1   -3.7162500057E-16
             2    1.0029064119E-15
             3    7.1171383900E-15
             4    7.1671061583E-16
             5    9.0021877109E-16
             6    1.8598358685E-15
             7    5.5825013641E-01
             8   -3.5297132151E-16
             9   -4.9518634794E-16
            10    5.0980392836E-15
            11   -1.8784501168E-16
            12   -1.6815278160E-15
            13    8.9262515953E-16
            14    5.5825013641E-01
  Sym= A
  Ene=     2.0721910148E+00
  Spin= Beta
  Occup=     0.0000000000E+00
             1    6.5524383986E-01
             2   -1.0311405413E-16
             3    4.3844442883E-16
             4   -1.7074320667E-15
             5   -2.4220089702E-15
             6    4.4220532328E-17
             7    3.4766746426E-18
             8   -6.5524383986E-01
             9    5.9619827140E-16
            10    6.4138683713E-17
            11   -3.6876021972E-16
            12   -3.5068879130E-16
            13   -1.0757937081E-15
            14    1.3823831347E-17
  Sym= A
  Ene=     2.1575078809E+00
  Spin= Beta
  Occup=     0.0000000000E+00
             1   -5.6840323074E-16
             2   -1.2279525677E-01
             3   -6.5547941700E-01
             4    1.8288935297E-15
             5    3.2753565208E-17
             6    8.4886966705E-16
             7    1.2023009343E-15
             8   -8.1947779720E-16
             9    1.2279525677E-01
            10    6.5547941700E-01
            11   -1.6982546442E-15
            12   -7.0210660516E-16
            13   -9.9974770627E-16
            14    6.4732887096E-16
  Sym= A
  Ene=     2.1575078809E+00
  Spin= Beta
  Occup=     0.0000000000E+00
             1   -4.5326892303E-16
             2   -6.5547941700E-01
             3    1.2279525677E-01
             4   -7.8546333668E-16
             5   -2.0844382383E-15
             6   -5.3929071744E-16
             7    6.9219217745E-16
             8    2.4790723258E-16
             9    6.5547941700E-01
            10   -1.2279525677E-01
            11   -8.4735403866E-16
            12    3.6565239792E-15
            13   -2.6413204969E-16
            14    6.8990149368E-16
  Sym= A
  Ene=     2.2870901133E+00
  Spin= Beta
  Occup=     0.0000000000E+00
             1    2.3821270798E-16
             2    1.8069367863E-15
             3    1.0503515467E-15
             4    6.6712175147E-01
             5   -2.2984664398E-01
             6    1.9342226482E-15
             7    4.9754326822E-18
             8   -3.5754681587E-16
             9   -6.6951023394E-16
            10   -1.5804272108E-15
            11   -6.6712175147E-01
            12    2.2984664398E-01
            13   -7.9499342825E-16
            14   -2.8561247899E-17
  Sym= A
  Ene=     2.2870901133E+00
  Spin= Beta
  Occup=     0.0000000000E+00
             1   -1.1393711102E-15
             2    3.2370006684E-15
             3   -1.3029106759E-15
             4   -2.2984664398E-01
             5   -6.6712175147E-01
             6   -4.9364125783E-15
             7    1.1767839739E-15
             8    1.2574962017E-15
             9   -1.2068558303E-15
            10    1.4033512149E-15
            11    2.2984664398E-01
            12    6.6712175147E-01
            13    4.6553410166E-15
            14    1.1749377852E-15
  Sym= A
  Ene=     2.4923514985E+00
  Spin= Beta
  Occup=     0.0000000000E+00
             1    7.3687511580E-16
             2   -1.1713716368E-15
             3   -6.5075198367E-16
             4    2.2529930170E-15
             5    2.7260698651E-15
             6   -1.1242326716E+00
             7    2.5227802675E-16
             8    3.2534627449E-17
             9   -6.4817696289E-16
            10    3.9023966502E-16
            11   -1.4980277490E-15
            12   -2.8053998472E-15
            13    1.1242326716E+00
            14    2.5227802675E-16
  Sym= A
  Ene=     2.4923514985E+00
  Spin= Beta
  Occup=     0.0000000000E+00
             1   -3.0153503193E-18
             2   -3.1246520118E-17
             3    2.1191326234E-15
             4    8.2672879015E-17
             5    2.5615011447E-17
             6   -6.5260077032E-31
             7   -1.1242326716E+00
             8    3.0153503193E-18
             9    3.0706343230E-17
            10    2.5093793157E-15
            11    6.3149599388E-17
            12    3.3567036270E-17
            13    1.5476047167E-30
            14    1.1242326716E+00
