[Molden Format]
Generated by Polyquant
[Atoms] (AU)
   H     1     1             0             0      0.709592
   H     2     1             0             0     -0.709592
[GTO]
   1   0
   s     1  1.00
    5.0000000000E-01    1.0000000000E+00

   2   0
   s     1  1.00
    5.0000000000E-01    1.0000000000E+00

[5D]
[7F]
[9G]

[MO]
  Sym= A
  Ene=    -4.6510932760E-01
  Spin= Alpha
  Occup=     1.0000000000E+00
             1    5.5825013641E-01
             2    5.5825013641E-01
  Sym= A
  Ene=     6.4378071811E-01
  Spin= Alpha
  Occup=     0.0000000000E+00
             1   -1.1242326716E+00
             2    1.1242326716E+00
  Sym= A
  Ene=    -4.6510932760E-01
  Spin= Beta
  Occup=     1.0000000000E+00
             1    5.5825013641E-01
             2    5.5825013641E-01
  Sym= A
  Ene=     6.4378071811E-01
  Spin= Beta
  Occup=     0.0000000000E+00
             1   -1.1242326716E+00
             2    1.1242326716E+00
