[Molden Format]
Generated by Polyquant
[Atoms] (AU)
   H     1     1             0             0      0.709592
   H     2     1             0             0     -0.709592
[GTO]
   1   0
   d     1  1.00
    5.0000000000E-01    1.0000000000E+00

   2   0
   d     1  1.00
    5.0000000000E-01    1.0000000000E+00

[5D]
[7F]
[9G]

[MO]
  Sym= A
  Ene=     7.6625246639E-01
  Spin= Alpha
  Occup=     1.0000000000E+00
             1    7.0810857366E-01
             2    1.7163714860E-16
             3    1.2300680571E-17
             4   -3.4466821484E-16
             5   -3.6554306059E-17
             6    7.0810857366E-01
             7    1.5848762010E-16
             8   -2.1229820137E-17
             9   -9.2282793942E-18
            10   -3.6554306059E-17
  Sym= A
  Ene=     1.2681113552E+00
  Spin= Alpha
  Occup=     0.0000000000E+00
             1   -7.6221642729E-16
             2    4.0124957635E-01
             3    5.8406847386E-01
             4   -1.9314327008E-15
             5   -1.1643358211E-16
             6    5.9862677367E-16
             7    4.0124957635E-01
             8    5.8406847386E-01
             9   -2.8512751318E-15
            10   -1.1643358211E-16
  Sym= A
  Ene=     1.2681113552E+00
  Spin= Alpha
  Occup=     0.0000000000E+00
             1   -4.5867801544E-16
             2    5.8406847386E-01
             3   -4.0124957635E-01
             4   -2.3255980143E-16
             5    1.6762254604E-17
             6    9.3456846383E-17
             7    5.8406847386E-01
             8   -4.0124957635E-01
             9   -1.0564963992E-16
            10    1.6762254604E-17
  Sym= A
  Ene=     1.4241399254E+00
  Spin= Alpha
  Occup=     0.0000000000E+00
             1    6.0949098516E-17
             2    2.2757908389E-15
             3    2.7522492089E-15
             4    5.5800749484E-01
             5    1.6457536278E-02
             6    4.5642697992E-16
             7    1.9423620199E-15
             8    2.3553291980E-15
             9    5.5800749484E-01
            10    1.6457536278E-02
  Sym= A
  Ene=     1.4241399254E+00
  Spin= Alpha
  Occup=     0.0000000000E+00
             1    4.4255252598E-17
             2    1.4050881841E-16
             3    2.2048849512E-16
             4   -1.6457536278E-02
             5    5.5800749484E-01
             6    3.4148956713E-17
             7    1.3052386609E-16
             8    2.2407662762E-16
             9   -1.6457536278E-02
            10    5.5800749484E-01
  Sym= A
  Ene=     1.5007169448E+00
  Spin= Alpha
  Occup=     0.0000000000E+00
             1    7.0610922855E-01
             2    6.1319210184E-16
             3    3.8857529264E-16
             4   -5.8924726097E-16
             5   -3.2679398498E-31
             6   -7.0610922855E-01
             7    6.5002836950E-16
             8    2.1500337126E-16
             9    8.6027452196E-16
            10   -3.2679398498E-31
  Sym= A
  Ene=     1.7130383389E+00
  Spin= Alpha
  Occup=     0.0000000000E+00
             1   -2.4758230008E-17
             2   -5.0455747583E-01
             3    4.9325719926E-01
             4    1.8765262448E-15
             5    3.7484479205E-18
             6    4.3537503128E-17
             7    5.0455747583E-01
             8   -4.9325719926E-01
             9   -1.8812925500E-15
            10    3.7484479205E-18
  Sym= A
  Ene=     1.7130383389E+00
  Spin= Alpha
  Occup=     0.0000000000E+00
             1    4.9448761596E-17
             2   -4.9325719926E-01
             3   -5.0455747583E-01
             4    7.9602593368E-18
             5    7.5508091988E-19
             6   -5.5540241959E-17
             7    4.9325719926E-01
             8    5.0455747583E-01
             9    3.3350153763E-16
            10    7.5508091988E-19
  Sym= A
  Ene=     1.9811290271E+00
  Spin= Alpha
  Occup=     0.0000000000E+00
             1   -4.0311103242E-16
             2   -9.5215249172E-16
             3    1.2511361211E-15
             4   -1.1242326716E+00
             5   -4.5918134477E-19
             6    5.6525621116E-16
             7    8.2070525182E-16
             8   -6.3946865766E-16
             9    1.1242326716E+00
            10   -4.5918134477E-19
  Sym= A
  Ene=     1.9811290271E+00
  Spin= Alpha
  Occup=     0.0000000000E+00
             1    0.0000000000E+00
             2    0.0000000000E+00
             3    0.0000000000E+00
             4    0.0000000000E+00
             5    1.1242326716E+00
             6    0.0000000000E+00
             7    0.0000000000E+00
             8    0.0000000000E+00
             9    0.0000000000E+00
            10   -1.1242326716E+00
  Sym= A
  Ene=     7.6625246639E-01
  Spin= Beta
  Occup=     1.0000000000E+00
             1    7.0810857366E-01
             2    3.5188104745E-16
             3    1.1629262707E-16
             4   -9.8543111504E-16
             5   -3.1408884002E-17
             6    7.0810857366E-01
             7    1.1505710830E-16
             8    1.9907235932E-17
             9    6.3716257211E-16
            10   -3.1408884002E-17
  Sym= A
  Ene=     1.2681113552E+00
  Spin= Beta
  Occup=     0.0000000000E+00
             1   -5.4280500102E-16
             2    6.7560804375E-01
             3   -2.1375447573E-01
             4   -2.6396937980E-17
             5    2.2729149401E-17
             6    2.3632840572E-16
             7    6.7560804375E-01
             8   -2.1375447573E-01
             9   -9.5325562537E-18
            10    2.2729149401E-17
  Sym= A
  Ene=     1.2681113552E+00
  Spin= Beta
  Occup=     0.0000000000E+00
             1   -3.4257536659E-16
             2    2.1375447573E-01
             3    6.7560804375E-01
             4   -7.6219544201E-17
             5   -3.7597746814E-16
             6    5.1560127305E-17
             7    2.1375447573E-01
             8    6.7560804375E-01
             9    3.8045927989E-17
            10   -3.7597746814E-16
  Sym= A
  Ene=     1.4241399254E+00
  Spin= Beta
  Occup=     0.0000000000E+00
             1    3.2097947531E-16
             2    3.2132923162E-17
             3    1.3314323815E-17
             4    5.5825013641E-01
             5   -1.9384982370E-16
             6    1.8293333489E-16
             7    2.5966546085E-17
             8    1.9126889877E-17
             9    5.5825013641E-01
            10   -1.9384982370E-16
  Sym= A
  Ene=     1.4241399254E+00
  Spin= Beta
  Occup=     0.0000000000E+00
             1   -9.0048003335E-17
             2    1.3705841179E-16
             3    4.9992057176E-16
             4    7.5009918033E-16
             5    5.5825013641E-01
             6    8.5006095389E-17
             7    1.0603658601E-16
             8    4.8731426487E-16
             9   -3.6239953293E-16
            10    5.5825013641E-01
  Sym= A
  Ene=     1.5007169448E+00
  Spin= Beta
  Occup=     0.0000000000E+00
             1   -7.0610922855E-01
             2   -5.8189116563E-16
             3    5.1905672235E-16
             4    5.9999015882E-16
             5   -7.1586400223E-17
             6    7.0610922855E-01
             7   -5.6114840971E-16
             8   -5.9045588600E-16
             9   -4.9085084495E-16
            10   -7.1586400223E-17
  Sym= A
  Ene=     1.7130383389E+00
  Spin= Beta
  Occup=     0.0000000000E+00
             1   -5.5041935356E-16
             2    3.4063109264E-02
             3   -7.0478409149E-01
             4   -5.0535367133E-18
             5    5.5409496215E-18
             6    5.5748688563E-16
             7   -3.4063109264E-02
             8    7.0478409149E-01
             9    2.2469524853E-19
            10    5.5409496215E-18
  Sym= A
  Ene=     1.7130383389E+00
  Spin= Beta
  Occup=     0.0000000000E+00
             1    1.0115124440E-16
             2   -7.0478409149E-01
             3   -3.4063109264E-02
             4   -1.4411675853E-16
             5    1.1077130708E-17
             6    1.3486048353E-16
             7    7.0478409149E-01
             8    3.4063109264E-02
             9    1.4876768004E-16
            10    1.1077130708E-17
  Sym= A
  Ene=     1.9811290271E+00
  Spin= Beta
  Occup=     0.0000000000E+00
             1    0.0000000000E+00
             2    0.0000000000E+00
             3    0.0000000000E+00
             4    0.0000000000E+00
             5    1.1242326716E+00
             6    0.0000000000E+00
             7    0.0000000000E+00
             8    0.0000000000E+00
             9    0.0000000000E+00
            10   -1.1242326716E+00
  Sym= A
  Ene=     1.9811290271E+00
  Spin= Beta
  Occup=     0.0000000000E+00
             1   -9.0934868471E-16
             2    6.4984987347E-17
             3   -5.3168983809E-17
             4   -1.1242326716E+00
             5    2.3569210497E-16
             6   -1.1265729043E-16
             7   -1.1542749496E-16
             8   -6.0026269510E-17
             9    1.1242326716E+00
            10    2.3569210497E-16
