Rank =    0  Free Memory =  2766 MB
  Input file(s): Default.qmc.in-wfj.xml 

=====================================================
                    QMCPACK 3.9.9

       (c) Copyright 2003-  QMCPACK developers

                    Please cite:
 J. Kim et al. J. Phys. Cond. Mat. 30 195901 (2018)
      https://doi.org/10.1088/1361-648X/aab9c3

  Git branch: develop
  Last git commit: 37437cfce6618e9be6d29ced6c570d0e0fc22f8b
  Last git commit date: Wed Oct 21 15:13:40 2020 -0700
  Last git commit subject: Merge pull request #2737 from ye-luo/afqmc-move-warning
=====================================================
  Global options 

  Total number of MPI ranks = 1
  Number of MPI groups      = 1
  MPI group ID              = 0
  Number of ranks in group  = 1
  MPI ranks per node        = 1
  OMP 1st level threads     = 1
  OMP nested threading disabled or only 1 thread on the 2nd level

  Precision used in this calculation, see definitions in the manual:
  Base precision      = double
  Full precision      = double

  CPU only build
  Timer build option is enabled. Current timer level is coarse

  Input XML = Default.qmc.in-wfj.xml

  Project = Default
  date    = 2020-11-23 12:28:18 EST
  host    = jordan-wkst2


 Random Number
 -------------
  Offset for the random number seeds based on time: 306

  Range of prime numbers to use as seeds over processors and threads = 2029-2039


 Particle Set
 ------------
  Name: ion0

  All the species have the same mass 1
  Particle set size: 1


 Particle Set
 ------------
  Name: e

  All the species have the same mass 1
  Particle set size: 4


 Many-body wavefunction
 -------------------
  Name: psi0   tasking: no

  LCAO: SoaAtomicBasisSet<MultiQuintic,1>
Reading BasisSet from HDF5 file:Default.h5
<input node="atomicBasisSet" name="gaussian" expandYlm="pyscf" angular="spherical" elementType="Li" normalized="no" type="Numerical" expM="0" />
  AO BasisSet for Li
   Spherical Harmonics contain (-1)^m factor
   Angular momentum m expanded as -l, ... ,l, with the exception of L=1 (1,-1,0)
   Grid is created by the input paremters in h5
    Using log grid ri = 1e-06 rf = 100 npts = 1001
   R(n,l,m,s) 0 0 0 0
   R(n,l,m,s) 1 0 0 0
   R(n,l,m,s) 2 0 0 0
   R(n,l,m,s) 3 0 0 0
   R(n,l,m,s) 4 0 0 0
   R(n,l,m,s) 5 0 0 0
   R(n,l,m,s) 6 0 0 0
   R(n,l,m,s) 7 1 0 0
   R(n,l,m,s) 8 1 0 0
   R(n,l,m,s) 9 1 0 0
Expanding Ylm as L=1 as (1,-1,0) and L>1 as -l,-l+1,...,l-1,l
   Adding 1 spherical orbitals
   Adding 1 spherical orbitals
   Adding 1 spherical orbitals
   Adding 1 spherical orbitals
   Adding 1 spherical orbitals
   Adding 1 spherical orbitals
   Adding 1 spherical orbitals
   Adding 3 spherical orbitals
   Adding 3 spherical orbitals
   Adding 3 spherical orbitals
  Setting cutoff radius 1.66538e+08

   Maximum Angular Momentum  = 1
   Number of Radial functors = 10
   Basis size                = 16

  Created SPOSet builder named 'LCAOBSet' of type molecularorbital

   Single Slater determinant
   -------------------------


     Determinant
     -----------
      Name: updet   Spin group: 0   SPO name: updet

      Create a new SPO set updet

     Single particle orbitals (SPO)
     ------------------------------
      Name:    Type: LCAO   Builder class name: LCAOrbitalBuilder

WARNING SPOSet object name not given in the input!
        Using cusp correction.
Reading cusp info from : ../updet.cuspInfo.xml
Could not find precomputed cusp data for spo set: updet
Recalculating data.
  Number of molecular orbitals to compute correction on this rank: 2
   Working on MO: 0 Center: 0
   Working on MO: 1 Center: 0
Saving resulting cusp Info xml block to: updet.cuspInfo.xml
WARNING SPOSet object doesn't have a name.
      Setting delay_rank to default value 1
      Using rank-1 Sherman-Morrison Fahy update (SM1)
      Running on CPU.


     Determinant
     -----------
      Name: downdet   Spin group: 1   SPO name: downdet

      Create a new SPO set downdet

     Single particle orbitals (SPO)
     ------------------------------
      Name:    Type: LCAO   Builder class name: LCAOrbitalBuilder

WARNING SPOSet object name not given in the input!
        Using cusp correction.
Reading cusp info from : ../downdet.cuspInfo.xml
Could not find precomputed cusp data for spo set: downdet
Recalculating data.
  Number of molecular orbitals to compute correction on this rank: 2
   Working on MO: 0 Center: 0
   Working on MO: 1 Center: 0
Saving resulting cusp Info xml block to: downdet.cuspInfo.xml
WARNING SPOSet object doesn't have a name.
      Setting delay_rank to default value 1
      Using rank-1 Sherman-Morrison Fahy update (SM1)
      Running on CPU.

  Added a fermionic WaveFunctionComponent SlaterDet

   Jastrow
   -------
    Name: J2   Type: Two-Body   Function: Bspline

    Radial function for species: u - u
     Number of parameters: 10
     Cusp: -0.25
     Cutoff radius: 10

     Name                        Value Type Recompute Use Index
     ---- ---------------------------- ---- --------- --- -----
     uu_0                 0.000000e+00    1         1  ON     0
     uu_1                 0.000000e+00    1         1  ON     1
     uu_2                 0.000000e+00    1         1  ON     2
     uu_3                 0.000000e+00    1         1  ON     3
     uu_4                 0.000000e+00    1         1  ON     4
     uu_5                 0.000000e+00    1         1  ON     5
     uu_6                 0.000000e+00    1         1  ON     6
     uu_7                 0.000000e+00    1         1  ON     7
     uu_8                 0.000000e+00    1         1  ON     8
     uu_9                 0.000000e+00    1         1  ON     9

    Radial function for species: u - d
     Number of parameters: 10
     Cusp: -0.5
     Cutoff radius: 10

     Name                        Value Type Recompute Use Index
     ---- ---------------------------- ---- --------- --- -----
     ud_0                 7.699330e-01    1         1  ON     0
     ud_1                 4.350257e-01    1         1  ON     1
     ud_2                 1.733313e-01    1         1  ON     2
     ud_3                -2.206959e-02    1         1  ON     3
     ud_4                -1.648464e-01    1         1  ON     4
     ud_5                -2.590264e-01    1         1  ON     5
     ud_6                -3.041365e-01    1         1  ON     6
     ud_7                -2.960830e-01    1         1  ON     7
     ud_8                -2.347311e-01    1         1  ON     8
     ud_9                -1.288099e-01    1         1  ON     9


   Jastrow
   -------
    Name: J1   Type: One-Body   Function: Bspline

    Radial function for element: Li
     Number of parameters: 10
     Cusp: 0
     Cutoff radius: 10

      Name                        Value Type Recompute Use Index
     ----- ---------------------------- ---- --------- --- -----
     eLi_0                -1.237941e-02    1         1  ON     0
     eLi_1                -6.762618e-02    1         1  ON     1
     eLi_2                -3.414521e-02    1         1  ON     2
     eLi_3                -2.513824e-02    1         1  ON     3
     eLi_4                -7.002429e-04    1         1  ON     4
     eLi_5                 2.397094e-02    1         1  ON     5
     eLi_6                 2.166874e-02    1         1  ON     6
     eLi_7                 5.014673e-03    1         1  ON     7
     eLi_8                -2.057206e-02    1         1  ON     8
     eLi_9                -2.113471e-02    1         1  ON     9

  QMCHamiltonian::addOperator Kinetic to H, physical Hamiltonian 

 Hamiltonian and observables
 ---------------------------
  Name: h0

  QMCHamiltonian::addOperator ElecElec to H, physical Hamiltonian 
QMCHamiltonian::addOperatorType added type coulomb named ElecElec
  CoulombAA for ion0 is not created.  Number of particles == 1 and nonPeriodic
  QMCHamiltonian::addOperator IonElec to H, physical Hamiltonian 
QMCHamiltonian::addOperatorType added type coulomb named IonElec

  QMCHamiltonian::add2WalkerProperty added
    3 to P::PropertyList 
    0 to P::Collectables 
    starting Index of the observables in P::PropertyList = 9
ParticleSetPool::randomize 1 ParticleSet.
<init source="ion0" target="e">
</init>
  Initialization Execution time = 0.1617 secs
=========================================================
 Summary of QMC systems 
=========================================================
ParticleSetPool has: 

  ParticleSet 'e' contains 4 particles :  u(2) d(2)

    u -1.6121952795e-01 -5.2005214636e-01 -6.9628914176e-01
    u  3.5811712568e-01  1.2681484336e+00  1.6508322527e+00
    d  6.1766266159e-01 -1.2539408920e+00 -1.0721677901e+00
    d -2.1531034655e-01  1.1977336506e+00 -4.1303570965e-01

  Distance table for dissimilar particles (A-B):
    source: ion0  target: e
    Using structure-of-arrays (SoA) data layout
    Distance computations use open boundary conditions in 3D.

  Distance table for similar particles (A-A):
    source/target: e
    Using structure-of-arrays (SoA) data layout
    Distance computations use open boundary conditions in 3D.


  ParticleSet 'ion0' contains 1 particles :  Li(1)

    Li  0.0000000000e+00  0.0000000000e+00  0.0000000000e+00


  Hamiltonian h0
  Kinetic         Kinetic energy
  ElecElec        CoulombAB source=e

  IonElec         CoulombAA source/target ion0



=========================================================
  Start VMC
  File Root Default.s000 append = no 
=========================================================
Resetting walkers
  Adding 1 walkers to 0 existing sets
  Total number of walkers: 1.0000000000e+00
  Total weight: 1.0000000000e+00
  Resetting Properties of the walkers 1 x 12

<vmc function="put">
  qmc_counter=0  my_counter=0
  time step      = 5.0000000000e-01
  blocks         = 500
  steps          = 3000
  substeps       = 8
  current        = 0
  target samples = 0.0000000000e+00
  walkers/mpi    = 1

  stepsbetweensamples = 1503000
  SpinMoves      = no
<parameter name="blocks" condition="int">500</parameter>
<parameter name="blocks_between_recompute" condition="int">0</parameter>
<parameter name="check_properties" condition="int">100</parameter>
<parameter name="checkproperties" condition="int">100</parameter>
<parameter name="current" condition="int">0</parameter>
<parameter name="dmcwalkersperthread" condition="real">0.0000000000e+00</parameter>
<parameter name="maxcpusecs" condition="real">3.6000000000e+05</parameter>
<parameter name="record_configs" condition="int">0</parameter>
<parameter name="record_walkers" condition="int">1503000</parameter>
<parameter name="recordconfigs" condition="int">0</parameter>
<parameter name="recordwalkers" condition="int">1503000</parameter>
<parameter name="rewind" condition="int">0</parameter>
<parameter name="samples" condition="real">0.0000000000e+00</parameter>
<parameter name="samplesperthread" condition="real">0.0000000000e+00</parameter>
<parameter name="spinmass" condition="double">1.0000000000e+00</parameter>
<parameter name="spinmoves" condition="string">no</parameter>
<parameter name="steps" condition="int">3000</parameter>
<parameter name="stepsbetweensamples" condition="int">1503000</parameter>
<parameter name="store_configs" condition="int">0</parameter>
<parameter name="storeconfigs" condition="int">0</parameter>
<parameter name="sub_steps" condition="int">8</parameter>
<parameter name="substeps" condition="int">8</parameter>
<parameter name="tau" condition="au">5.0000000000e-01</parameter>
<parameter name="time_step" condition="au">5.0000000000e-01</parameter>
<parameter name="timestep" condition="au">5.0000000000e-01</parameter>
<parameter name="use_drift" condition="string">yes</parameter>
<parameter name="usedrift" condition="string">yes</parameter>
<parameter name="walkers" condition="int">1</parameter>
<parameter name="warmup_steps" condition="int">100</parameter>
<parameter name="warmupsteps" condition="int">100</parameter>
  DumpConfig==false Nothing (configurations, state) will be saved.
  Walker Samples are dumped every 1503000 steps.
</vmc>
  Set drift_modifier UNR parameter a = 1.0000000000e+00
  Initial partition of walkers 0 1 

  Using Particle by Particle moves
  Walker moves with drift
  Total Sample Size   =0
  Walker distribution on root = 0 1 
===== Memory Usage after the buffer registration =====
Available memory on node 0, free + buffers : 2762 MB
Memory footprint by rank 0 on node 0       : 35 MB
==================================================
  Anonymous Buffer size per walker : 17376 Bytes.
MEMORY increase 0 MB VMC::resetRun
====================================================
  SimpleFixedNodeBranch::finalize after a VMC block
    QMC counter        = 0
    time step          = 0.5
    reference energy   = -7.37531
    reference variance = 0.797431
====================================================
  QMC Execution time = 1.7619e+02 secs
Loop execution max-interations = 4
BRANCH resetRun
  Continue with the same input as the previous block.
 SimpleFixedNodeBranch::resetRun detected changes in <parameter>'s 
 BranchMode : 0000001100 0000001100
 iParam (old): 100               1                 0                 0                 1                 1                 1                 0                 
 iParam (new): 100               1                 0                 0                 1                 1                 1                 0                 
 vParam (old): 5.0000000000e-01  5.0000000000e-01  -7.3753105135e+00 -7.3753105135e+00 1.0000000000e+00  1.0000000000e+00  1.0000000000e+00  1.0000000000e+00  7.9743060019e-01  -7.3753105135e+00 1.0000000000e+00  1.0000000000e+00  1.0000000000e+01  1.0000000000e+00  1.0000000000e+00  1.0000000000e+00  1.0000000000e+00  
 vParam (new): 5.0000000000e-01  5.0000000000e-01  -7.3753105135e+00 -7.3753105135e+00 1.0000000000e+00  1.0000000000e+00  1.0000000000e+00  1.0000000000e+00  7.9743060019e-01  -7.3753105135e+00 1.0000000000e+00  1.0000000000e+00  1.0000000000e+01  1.0000000000e+00  1.0000000000e+00  1.0000000000e+00  1.0000000000e+00  

=========================================================
  Start QMCFixedSampleLinearOptimize
  File Root Default.s001 append = no 
=========================================================
  Skip QMCDriver::putQMCInfo 
  Resetting Properties of the walkers 1 x 12

=========================================================
  Start VMC
  File Root Default.s001 append = no 
=========================================================
Resetting walkers
  Using the current 1 walkers.
  Total number of walkers: 1.0000000000e+00
  Total weight: 1.0000000000e+00
  Resetting Properties of the walkers 1 x 12

<vmc function="put">
  qmc_counter=0  my_counter=0
  time step      = 5.0000000000e-01
  blocks         = 500
  steps          = 32
  substeps       = 4
  current        = 0
  target samples = 1.6000000000e+04
  walkers/mpi    = 1

  stepsbetweensamples = 1
  SpinMoves      = no
<parameter name="blocks" condition="int">500</parameter>
<parameter name="blocks_between_recompute" condition="int">0</parameter>
<parameter name="check_properties" condition="int">100</parameter>
<parameter name="checkproperties" condition="int">100</parameter>
<parameter name="current" condition="int">0</parameter>
<parameter name="dmcwalkersperthread" condition="real">1.6000000000e+04</parameter>
<parameter name="maxcpusecs" condition="real">3.6000000000e+05</parameter>
<parameter name="record_configs" condition="int">0</parameter>
<parameter name="record_walkers" condition="int">1</parameter>
<parameter name="recordconfigs" condition="int">0</parameter>
<parameter name="recordwalkers" condition="int">1</parameter>
<parameter name="rewind" condition="int">0</parameter>
<parameter name="samples" condition="real">1.6000000000e+04</parameter>
<parameter name="samplesperthread" condition="real">1.6000000000e+04</parameter>
<parameter name="spinmass" condition="double">1.0000000000e+00</parameter>
<parameter name="spinmoves" condition="string">no</parameter>
<parameter name="steps" condition="int">32</parameter>
<parameter name="stepsbetweensamples" condition="int">1</parameter>
<parameter name="store_configs" condition="int">0</parameter>
<parameter name="storeconfigs" condition="int">0</parameter>
<parameter name="sub_steps" condition="int">4</parameter>
<parameter name="substeps" condition="int">4</parameter>
<parameter name="tau" condition="au">5.0000000000e-01</parameter>
<parameter name="time_step" condition="au">5.0000000000e-01</parameter>
<parameter name="timestep" condition="au">5.0000000000e-01</parameter>
<parameter name="use_drift" condition="string">yes</parameter>
<parameter name="usedrift" condition="string">yes</parameter>
<parameter name="walkers" condition="int">1</parameter>
<parameter name="warmup_steps" condition="int">100</parameter>
<parameter name="warmupsteps" condition="int">100</parameter>
  DumpConfig==false Nothing (configurations, state) will be saved.
  Walker Samples are dumped every 1 steps.
</vmc>
    Restarting, cummulative properties:
      energy     = -7.3753105135e+00
      variance   = 0.0000000000e+00
      r2accepted = 1.0000000000e-10
      r2proposed = 1.0000000000e-10
  Set drift_modifier UNR parameter a = 1.0000000000e+00
 Using QMCCostFunction::QMCCostFunction
 Using Default Cost Function: Cost = <|E-E_ff|^2>
  Set drift_modifier UNR parameter a = 1.0000000000e+00
  EstimatorManagerBase::add replace LocalEnergy estimator.
<optimization-report>
<vmc stage="main" blocks="500">
  Cannot make clones again. Use existing 1 clones
  Initial partition of walkers 0 1 

  Using Particle by Particle moves
  Walker moves with drift
  Total Sample Size   =16000
  Walker distribution on root = 0 1 
===== Memory Usage after the buffer registration =====
Available memory on node 0, free + buffers : 2600 MB
Memory footprint by rank 0 on node 0       : 35 MB
==================================================
  Anonymous Buffer size per walker : 17376 Bytes.
MEMORY increase 0 MB VMC::resetRun
====================================================
  SimpleFixedNodeBranch::finalize after a VMC block
    QMC counter        = 1
    time step          = 0.5
    reference energy   = -7.37417
    reference variance = 0.77903
====================================================
  Execution time = 1.0474e+00
</vmc>
<opt stage="setup">
  <log>
   Reading configurations from h5FileRoot Default.s001
  QMCCostFunction is created with 1 threads.
  Using Nonlocal PP in Opt: no
   Number of samples loaded to each thread : 16000 
  VMC Eavg = -7.3742e+00
  VMC Evar = 7.7903e-01
  Total weights = 1.6000e+04
  Execution time = 3.2175e-01
  </log>
</opt>
<opt stage="main" walkers="16000">
  <log>

*****************************************
Building overlap and Hamiltonian matrices
*****************************************

Among totally 30 optimized parameters, largest LM parameter change : 2.6162e-01 at parameter 20

******************************************************************************
Init Cost =  -6.5588e+00    New Cost =  -6.6826e+00  Delta Cost =  -1.2374e-01
******************************************************************************

The new set of parameters is valid. Updating the trial wave function!

*****************************************************************************
Applying the update for shift_i =   1.0000e-02     and shift_s =   2.5000e-01
*****************************************************************************
  Execution time = 1.9080e-01
  </log>
  <optVariables href="Default.s001.opt.xml">
 uu_0                 1.272569e-02 1 1  ON 0
 uu_1                -1.805089e-02 1 1  ON 1
 uu_2                -3.014644e-02 1 1  ON 2
 uu_3                -5.462816e-02 1 1  ON 3
 uu_4                -5.227958e-02 1 1  ON 4
 uu_5                -5.335699e-02 1 1  ON 5
 uu_6                -5.580661e-02 1 1  ON 6
 uu_7                -5.121328e-02 1 1  ON 7
 uu_8                -3.715909e-02 1 1  ON 8
 uu_9                -3.102103e-02 1 1  ON 9
 ud_0                 5.245995e-01 1 1  ON 10
 ud_1                 2.897554e-01 1 1  ON 11
 ud_2                 1.282400e-01 1 1  ON 12
 ud_3                 3.377941e-02 1 1  ON 13
 ud_4                -6.160045e-02 1 1  ON 14
 ud_5                -1.265849e-01 1 1  ON 15
 ud_6                -1.702183e-01 1 1  ON 16
 ud_7                -1.838645e-01 1 1  ON 17
 ud_8                -1.509584e-01 1 1  ON 18
 ud_9                -1.102400e-01 1 1  ON 19
eLi_0                -2.740003e-01 1 1  ON 20
eLi_1                -5.256640e-02 1 1  ON 21
eLi_2                -1.260309e-01 1 1  ON 22
eLi_3                -6.687653e-02 1 1  ON 23
eLi_4                -7.633255e-02 1 1  ON 24
eLi_5                -4.483040e-02 1 1  ON 25
eLi_6                -3.928842e-02 1 1  ON 26
eLi_7                -3.490752e-02 1 1  ON 27
eLi_8                -1.896724e-02 1 1  ON 28
eLi_9                -1.450194e-03 1 1  ON 29
  </optVariables>
   Restore the number of walkers to 1, removing 0 walkers.
</opt>
</optimization-report>
  QMC Execution time = 1.56 secs

=========================================================
  Start QMCFixedSampleLinearOptimize
  File Root Default.s002 append = no 
=========================================================
  Skip QMCDriver::putQMCInfo 
  Resetting Properties of the walkers 1 x 12

=========================================================
  Start VMC
  File Root Default.s002 append = no 
=========================================================
Using existing walkers 
  Resetting Properties of the walkers 1 x 12

<vmc function="put">
  qmc_counter=1  my_counter=0
  time step      = 0.5
  blocks         = 500
  steps          = 32
  substeps       = 4
  current        = 0
  target samples = 1.6e+04
  walkers/mpi    = 1

  stepsbetweensamples = 1
  SpinMoves      = no
<parameter name="blocks" condition="int">500</parameter>
<parameter name="blocks_between_recompute" condition="int">0</parameter>
<parameter name="check_properties" condition="int">100</parameter>
<parameter name="checkproperties" condition="int">100</parameter>
<parameter name="current" condition="int">0</parameter>
<parameter name="dmcwalkersperthread" condition="real">1.6e+04</parameter>
<parameter name="maxcpusecs" condition="real">3.6e+05</parameter>
<parameter name="record_configs" condition="int">0</parameter>
<parameter name="record_walkers" condition="int">1</parameter>
<parameter name="recordconfigs" condition="int">0</parameter>
<parameter name="recordwalkers" condition="int">1</parameter>
<parameter name="rewind" condition="int">0</parameter>
<parameter name="samples" condition="real">1.6e+04</parameter>
<parameter name="samplesperthread" condition="real">1.6e+04</parameter>
<parameter name="spinmass" condition="double">1</parameter>
<parameter name="spinmoves" condition="string">no</parameter>
<parameter name="steps" condition="int">32</parameter>
<parameter name="stepsbetweensamples" condition="int">1</parameter>
<parameter name="store_configs" condition="int">0</parameter>
<parameter name="storeconfigs" condition="int">0</parameter>
<parameter name="sub_steps" condition="int">4</parameter>
<parameter name="substeps" condition="int">4</parameter>
<parameter name="tau" condition="au">0.5</parameter>
<parameter name="time_step" condition="au">0.5</parameter>
<parameter name="timestep" condition="au">0.5</parameter>
<parameter name="use_drift" condition="string">yes</parameter>
<parameter name="usedrift" condition="string">yes</parameter>
<parameter name="walkers" condition="int">1</parameter>
<parameter name="warmup_steps" condition="int">100</parameter>
<parameter name="warmupsteps" condition="int">100</parameter>
  DumpConfig==false Nothing (configurations, state) will be saved.
  Walker Samples are dumped every 1 steps.
</vmc>
    Restarting, cummulative properties:
      energy     = -7.375
      variance   = 0
      r2accepted = 1e-10
      r2proposed = 1e-10
  Set drift_modifier UNR parameter a = 1
 Using QMCCostFunction::QMCCostFunction
 Using Default Cost Function: Cost = <|E-E_ff|^2>
  Set drift_modifier UNR parameter a = 1.0000e+00
  EstimatorManagerBase::add replace LocalEnergy estimator.
<optimization-report>
<vmc stage="main" blocks="500">
  Cannot make clones again. Use existing 1 clones
  Initial partition of walkers 0 1 

  Using Particle by Particle moves
  Walker moves with drift
  Total Sample Size   =16000
  Walker distribution on root = 0 1 
===== Memory Usage after the buffer registration =====
Available memory on node 0, free + buffers : 2575 MB
Memory footprint by rank 0 on node 0       : 67 MB
==================================================
  Anonymous Buffer size per walker : 17376 Bytes.
MEMORY increase 0 MB VMC::resetRun
====================================================
  SimpleFixedNodeBranch::finalize after a VMC block
    QMC counter        = 2
    time step          = 0.5
    reference energy   = -7.4763
    reference variance = 0.281176
====================================================
  Execution time = 1.0131e+00
</vmc>
<opt stage="setup">
  <log>
   Reading configurations from h5FileRoot Default.s002
  QMCCostFunction is created with 1 threads.
  Using Nonlocal PP in Opt: no
   Number of samples loaded to each thread : 16000 
  VMC Eavg = -7.4763e+00
  VMC Evar = 2.8118e-01
  Total weights = 1.6000e+04
  Execution time = 3.2279e-01
  </log>
</opt>
<opt stage="main" walkers="16000">
  <log>

*****************************************
Building overlap and Hamiltonian matrices
*****************************************

Among totally 30 optimized parameters, largest LM parameter change : 1.3636e-01 at parameter 20

******************************************************************************
Init Cost =  -6.7006e+00    New Cost =  -6.7083e+00  Delta Cost =  -7.7101e-03
******************************************************************************

The new set of parameters is valid. Updating the trial wave function!

*****************************************************************************
Applying the update for shift_i =   1.0000e-02     and shift_s =   6.2500e-02
*****************************************************************************
  Execution time = 1.7713e-01
  </log>
  <optVariables href="Default.s002.opt.xml">
 uu_0                 1.331535e-02 1 1  ON 0
 uu_1                -3.221878e-02 1 1  ON 1
 uu_2                -4.234636e-02 1 1  ON 2
 uu_3                -8.297678e-02 1 1  ON 3
 uu_4                -8.434561e-02 1 1  ON 4
 uu_5                -8.319211e-02 1 1  ON 5
 uu_6                -8.330093e-02 1 1  ON 6
 uu_7                -7.389160e-02 1 1  ON 7
 uu_8                -5.682155e-02 1 1  ON 8
 uu_9                -4.094109e-02 1 1  ON 9
 ud_0                 5.061764e-01 1 1  ON 10
 ud_1                 2.574782e-01 1 1  ON 11
 ud_2                 1.463355e-01 1 1  ON 12
 ud_3                 9.408991e-02 1 1  ON 13
 ud_4                 2.421255e-02 1 1  ON 14
 ud_5                -2.852328e-02 1 1  ON 15
 ud_6                -6.842553e-02 1 1  ON 16
 ud_7                -9.794094e-02 1 1  ON 17
 ud_8                -9.774670e-02 1 1  ON 18
 ud_9                -9.264217e-02 1 1  ON 19
eLi_0                -4.103612e-01 1 1  ON 20
eLi_1                -1.508525e-01 1 1  ON 21
eLi_2                -1.925328e-01 1 1  ON 22
eLi_3                -9.705556e-02 1 1  ON 23
eLi_4                -1.079161e-01 1 1  ON 24
eLi_5                -7.865991e-02 1 1  ON 25
eLi_6                -5.394612e-02 1 1  ON 26
eLi_7                -2.700526e-02 1 1  ON 27
eLi_8                 3.794365e-03 1 1  ON 28
eLi_9                 2.953748e-03 1 1  ON 29
  </optVariables>
   Restore the number of walkers to 1, removing 0 walkers.
</opt>
</optimization-report>
  QMC Execution time = 1.513 secs

=========================================================
  Start QMCFixedSampleLinearOptimize
  File Root Default.s003 append = no 
=========================================================
  Skip QMCDriver::putQMCInfo 
  Resetting Properties of the walkers 1 x 12

=========================================================
  Start VMC
  File Root Default.s003 append = no 
=========================================================
Using existing walkers 
  Resetting Properties of the walkers 1 x 12

<vmc function="put">
  qmc_counter=2  my_counter=0
  time step      = 0.5
  blocks         = 500
  steps          = 32
  substeps       = 4
  current        = 0
  target samples = 1.6e+04
  walkers/mpi    = 1

  stepsbetweensamples = 1
  SpinMoves      = no
<parameter name="blocks" condition="int">500</parameter>
<parameter name="blocks_between_recompute" condition="int">0</parameter>
<parameter name="check_properties" condition="int">100</parameter>
<parameter name="checkproperties" condition="int">100</parameter>
<parameter name="current" condition="int">0</parameter>
<parameter name="dmcwalkersperthread" condition="real">1.6e+04</parameter>
<parameter name="maxcpusecs" condition="real">3.6e+05</parameter>
<parameter name="record_configs" condition="int">0</parameter>
<parameter name="record_walkers" condition="int">1</parameter>
<parameter name="recordconfigs" condition="int">0</parameter>
<parameter name="recordwalkers" condition="int">1</parameter>
<parameter name="rewind" condition="int">0</parameter>
<parameter name="samples" condition="real">1.6e+04</parameter>
<parameter name="samplesperthread" condition="real">1.6e+04</parameter>
<parameter name="spinmass" condition="double">1</parameter>
<parameter name="spinmoves" condition="string">no</parameter>
<parameter name="steps" condition="int">32</parameter>
<parameter name="stepsbetweensamples" condition="int">1</parameter>
<parameter name="store_configs" condition="int">0</parameter>
<parameter name="storeconfigs" condition="int">0</parameter>
<parameter name="sub_steps" condition="int">4</parameter>
<parameter name="substeps" condition="int">4</parameter>
<parameter name="tau" condition="au">0.5</parameter>
<parameter name="time_step" condition="au">0.5</parameter>
<parameter name="timestep" condition="au">0.5</parameter>
<parameter name="use_drift" condition="string">yes</parameter>
<parameter name="usedrift" condition="string">yes</parameter>
<parameter name="walkers" condition="int">1</parameter>
<parameter name="warmup_steps" condition="int">100</parameter>
<parameter name="warmupsteps" condition="int">100</parameter>
  DumpConfig==false Nothing (configurations, state) will be saved.
  Walker Samples are dumped every 1 steps.
</vmc>
    Restarting, cummulative properties:
      energy     = -7.409
      variance   = 0
      r2accepted = 1e-10
      r2proposed = 1e-10
  Set drift_modifier UNR parameter a = 1
 Using QMCCostFunction::QMCCostFunction
 Using Default Cost Function: Cost = <|E-E_ff|^2>
  Set drift_modifier UNR parameter a = 1.0000e+00
  EstimatorManagerBase::add replace LocalEnergy estimator.
<optimization-report>
<vmc stage="main" blocks="500">
  Cannot make clones again. Use existing 1 clones
  Initial partition of walkers 0 1 

  Using Particle by Particle moves
  Walker moves with drift
  Total Sample Size   =16000
  Walker distribution on root = 0 1 
===== Memory Usage after the buffer registration =====
Available memory on node 0, free + buffers : 2576 MB
Memory footprint by rank 0 on node 0       : 68 MB
==================================================
  Anonymous Buffer size per walker : 17376 Bytes.
MEMORY increase 0 MB VMC::resetRun
====================================================
  SimpleFixedNodeBranch::finalize after a VMC block
    QMC counter        = 3
    time step          = 0.5
    reference energy   = -7.47451
    reference variance = 0.230677
====================================================
  Execution time = 1.0082e+00
</vmc>
<opt stage="setup">
  <log>
   Reading configurations from h5FileRoot Default.s003
  QMCCostFunction is created with 1 threads.
  Using Nonlocal PP in Opt: no
   Number of samples loaded to each thread : 16000 
  VMC Eavg = -7.4745e+00
  VMC Evar = 2.3068e-01
  Total weights = 1.6000e+04
  Execution time = 3.4089e-01
  </log>
</opt>
<opt stage="main" walkers="16000">
  <log>

*****************************************
Building overlap and Hamiltonian matrices
*****************************************

Among totally 30 optimized parameters, largest LM parameter change : 1.2309e-01 at parameter 15

******************************************************************************
Init Cost =  -6.7040e+00    New Cost =  -6.7094e+00  Delta Cost =  -5.4494e-03
******************************************************************************

The new set of parameters is valid. Updating the trial wave function!

*****************************************************************************
Applying the update for shift_i =   1.0000e-02     and shift_s =   1.5625e-02
*****************************************************************************
  Execution time = 1.7464e-01
  </log>
  <optVariables href="Default.s003.opt.xml">
 uu_0                 3.196301e-02 1 1  ON 0
 uu_1                -2.216672e-02 1 1  ON 1
 uu_2                -3.239356e-02 1 1  ON 2
 uu_3                -7.267939e-02 1 1  ON 3
 uu_4                -7.455766e-02 1 1  ON 4
 uu_5                -8.027928e-02 1 1  ON 5
 uu_6                -6.441028e-02 1 1  ON 6
 uu_7                -5.535932e-02 1 1  ON 7
 uu_8                -4.103092e-02 1 1  ON 8
 uu_9                -3.391872e-02 1 1  ON 9
 ud_0                 5.817355e-01 1 1  ON 10
 ud_1                 3.383817e-01 1 1  ON 11
 ud_2                 2.359227e-01 1 1  ON 12
 ud_3                 1.993744e-01 1 1  ON 13
 ud_4                 1.465723e-01 1 1  ON 14
 ud_5                 9.456534e-02 1 1  ON 15
 ud_6                 5.257904e-02 1 1  ON 16
 ud_7                 1.002482e-02 1 1  ON 17
 ud_8                -1.230617e-02 1 1  ON 18
 ud_9                -2.815696e-02 1 1  ON 19
eLi_0                -4.949869e-01 1 1  ON 20
eLi_1                -2.450566e-01 1 1  ON 21
eLi_2                -2.683161e-01 1 1  ON 22
eLi_3                -1.365452e-01 1 1  ON 23
eLi_4                -9.611068e-02 1 1  ON 24
eLi_5                -3.710947e-02 1 1  ON 25
eLi_6                -5.292325e-03 1 1  ON 26
eLi_7                 2.355604e-02 1 1  ON 27
eLi_8                 5.329602e-02 1 1  ON 28
eLi_9                 4.530209e-02 1 1  ON 29
  </optVariables>
   Restore the number of walkers to 1, removing 0 walkers.
</opt>
</optimization-report>
  QMC Execution time = 1.524 secs

=========================================================
  Start QMCFixedSampleLinearOptimize
  File Root Default.s004 append = no 
=========================================================
  Skip QMCDriver::putQMCInfo 
  Resetting Properties of the walkers 1 x 12

=========================================================
  Start VMC
  File Root Default.s004 append = no 
=========================================================
Using existing walkers 
  Resetting Properties of the walkers 1 x 12

<vmc function="put">
  qmc_counter=3  my_counter=0
  time step      = 0.5
  blocks         = 500
  steps          = 32
  substeps       = 4
  current        = 0
  target samples = 1.6e+04
  walkers/mpi    = 1

  stepsbetweensamples = 1
  SpinMoves      = no
<parameter name="blocks" condition="int">500</parameter>
<parameter name="blocks_between_recompute" condition="int">0</parameter>
<parameter name="check_properties" condition="int">100</parameter>
<parameter name="checkproperties" condition="int">100</parameter>
<parameter name="current" condition="int">0</parameter>
<parameter name="dmcwalkersperthread" condition="real">1.6e+04</parameter>
<parameter name="maxcpusecs" condition="real">3.6e+05</parameter>
<parameter name="record_configs" condition="int">0</parameter>
<parameter name="record_walkers" condition="int">1</parameter>
<parameter name="recordconfigs" condition="int">0</parameter>
<parameter name="recordwalkers" condition="int">1</parameter>
<parameter name="rewind" condition="int">0</parameter>
<parameter name="samples" condition="real">1.6e+04</parameter>
<parameter name="samplesperthread" condition="real">1.6e+04</parameter>
<parameter name="spinmass" condition="double">1</parameter>
<parameter name="spinmoves" condition="string">no</parameter>
<parameter name="steps" condition="int">32</parameter>
<parameter name="stepsbetweensamples" condition="int">1</parameter>
<parameter name="store_configs" condition="int">0</parameter>
<parameter name="storeconfigs" condition="int">0</parameter>
<parameter name="sub_steps" condition="int">4</parameter>
<parameter name="substeps" condition="int">4</parameter>
<parameter name="tau" condition="au">0.5</parameter>
<parameter name="time_step" condition="au">0.5</parameter>
<parameter name="timestep" condition="au">0.5</parameter>
<parameter name="use_drift" condition="string">yes</parameter>
<parameter name="usedrift" condition="string">yes</parameter>
<parameter name="walkers" condition="int">1</parameter>
<parameter name="warmup_steps" condition="int">100</parameter>
<parameter name="warmupsteps" condition="int">100</parameter>
  DumpConfig==false Nothing (configurations, state) will be saved.
  Walker Samples are dumped every 1 steps.
</vmc>
    Restarting, cummulative properties:
      energy     = -7.425
      variance   = 0
      r2accepted = 1e-10
      r2proposed = 1e-10
  Set drift_modifier UNR parameter a = 1
 Using QMCCostFunction::QMCCostFunction
 Using Default Cost Function: Cost = <|E-E_ff|^2>
  Set drift_modifier UNR parameter a = 1.0000e+00
  EstimatorManagerBase::add replace LocalEnergy estimator.
<optimization-report>
<vmc stage="main" blocks="500">
  Cannot make clones again. Use existing 1 clones
  Initial partition of walkers 0 1 

  Using Particle by Particle moves
  Walker moves with drift
  Total Sample Size   =16000
  Walker distribution on root = 0 1 
===== Memory Usage after the buffer registration =====
Available memory on node 0, free + buffers : 2549 MB
Memory footprint by rank 0 on node 0       : 68 MB
==================================================
  Anonymous Buffer size per walker : 17376 Bytes.
MEMORY increase 0 MB VMC::resetRun
====================================================
  SimpleFixedNodeBranch::finalize after a VMC block
    QMC counter        = 4
    time step          = 0.5
    reference energy   = -7.46319
    reference variance = 0.221147
====================================================
  Execution time = 1.0368e+00
</vmc>
<opt stage="setup">
  <log>
   Reading configurations from h5FileRoot Default.s004
  QMCCostFunction is created with 1 threads.
  Using Nonlocal PP in Opt: no
   Number of samples loaded to each thread : 16000 
  VMC Eavg = -7.4632e+00
  VMC Evar = 2.2115e-01
  Total weights = 1.6000e+04
  Execution time = 3.3254e-01
  </log>
</opt>
<opt stage="main" walkers="16000">
  <log>

*****************************************
Building overlap and Hamiltonian matrices
*****************************************

Among totally 30 optimized parameters, largest LM parameter change : 7.3184e-02 at parameter 12

******************************************************************************
Init Cost =  -6.6948e+00    New Cost =  -6.6961e+00  Delta Cost =  -1.2993e-03
******************************************************************************

The new set of parameters is valid. Updating the trial wave function!

*****************************************************************************
Applying the update for shift_i =   1.0000e-02     and shift_s =   3.9062e-03
*****************************************************************************
  Execution time = 1.7272e-01
  </log>
  <optVariables href="Default.s004.opt.xml">
 uu_0                 4.425291e-02 1 1  ON 0
 uu_1                -1.364505e-02 1 1  ON 1
 uu_2                -2.193200e-02 1 1  ON 2
 uu_3                -7.507217e-02 1 1  ON 3
 uu_4                -8.101797e-02 1 1  ON 4
 uu_5                -8.665748e-02 1 1  ON 5
 uu_6                -7.945585e-02 1 1  ON 6
 uu_7                -6.781112e-02 1 1  ON 7
 uu_8                -4.658966e-02 1 1  ON 8
 uu_9                -2.978277e-02 1 1  ON 9
 ud_0                 6.548788e-01 1 1  ON 10
 ud_1                 4.096474e-01 1 1  ON 11
 ud_2                 3.091069e-01 1 1  ON 12
 ud_3                 2.634452e-01 1 1  ON 13
 ud_4                 2.126102e-01 1 1  ON 14
 ud_5                 1.662081e-01 1 1  ON 15
 ud_6                 1.146960e-01 1 1  ON 16
 ud_7                 6.722320e-02 1 1  ON 17
 ud_8                 3.128521e-02 1 1  ON 18
 ud_9                 3.815224e-03 1 1  ON 19
eLi_0                -5.455560e-01 1 1  ON 20
eLi_1                -3.061426e-01 1 1  ON 21
eLi_2                -3.294342e-01 1 1  ON 22
eLi_3                -1.772297e-01 1 1  ON 23
eLi_4                -1.257817e-01 1 1  ON 24
eLi_5                -5.771374e-02 1 1  ON 25
eLi_6                -2.546551e-03 1 1  ON 26
eLi_7                 4.527098e-02 1 1  ON 27
eLi_8                 6.750162e-02 1 1  ON 28
eLi_9                 4.977433e-02 1 1  ON 29
  </optVariables>
   Restore the number of walkers to 1, removing 0 walkers.
</opt>
</optimization-report>
  QMC Execution time = 1.543 secs
Loop execution max-interations = 10
BRANCH resetRun
  Continue with the same input as the previous block.
 SimpleFixedNodeBranch::resetRun detected changes in <parameter>'s 
 BranchMode : 0000001100 0000001100
 iParam (old):                100                 1                 4                 0                 1                 1                 1                 0
 iParam (new):                100                 1                 4                 0                 1                 1                 1                 0
 vParam (old):                0.5               0.5      -7.375310514      -7.375310514                 1                 1                 1                 1      0.7974306002      -7.375310514                 1                 1                10                 1                 1                 1                 1
 vParam (new):                0.5               0.5      -7.375310514      -7.375310514                 1                 1                 1                 1      0.7974306002      -7.375310514                 1                 1                10                 1                 1                 1                 1

=========================================================
  Start QMCFixedSampleLinearOptimize
  File Root Default.s005 append = no 
=========================================================
  Skip QMCDriver::putQMCInfo 
  Resetting Properties of the walkers 1 x 12

=========================================================
  Start VMC
  File Root Default.s005 append = no 
=========================================================
Resetting walkers
  Using the current 1 walkers.
  Total number of walkers: 1
  Total weight: 1
  Resetting Properties of the walkers 1 x 12

<vmc function="put">
  qmc_counter=0  my_counter=0
  time step      = 0.5
  blocks         = 500
  steps          = 128
  substeps       = 4
  current        = 0
  target samples = 64000
  walkers/mpi    = 1

  stepsbetweensamples = 1
  SpinMoves      = no
<parameter name="blocks" condition="int">500</parameter>
<parameter name="blocks_between_recompute" condition="int">0</parameter>
<parameter name="check_properties" condition="int">100</parameter>
<parameter name="checkproperties" condition="int">100</parameter>
<parameter name="current" condition="int">0</parameter>
<parameter name="dmcwalkersperthread" condition="real">64000</parameter>
<parameter name="maxcpusecs" condition="real">360000</parameter>
<parameter name="record_configs" condition="int">0</parameter>
<parameter name="record_walkers" condition="int">1</parameter>
<parameter name="recordconfigs" condition="int">0</parameter>
<parameter name="recordwalkers" condition="int">1</parameter>
<parameter name="rewind" condition="int">0</parameter>
<parameter name="samples" condition="real">64000</parameter>
<parameter name="samplesperthread" condition="real">64000</parameter>
<parameter name="spinmass" condition="double">1</parameter>
<parameter name="spinmoves" condition="string">no</parameter>
<parameter name="steps" condition="int">128</parameter>
<parameter name="stepsbetweensamples" condition="int">1</parameter>
<parameter name="store_configs" condition="int">0</parameter>
<parameter name="storeconfigs" condition="int">0</parameter>
<parameter name="sub_steps" condition="int">4</parameter>
<parameter name="substeps" condition="int">4</parameter>
<parameter name="tau" condition="au">0.5</parameter>
<parameter name="time_step" condition="au">0.5</parameter>
<parameter name="timestep" condition="au">0.5</parameter>
<parameter name="use_drift" condition="string">yes</parameter>
<parameter name="usedrift" condition="string">yes</parameter>
<parameter name="walkers" condition="int">1</parameter>
<parameter name="warmup_steps" condition="int">100</parameter>
<parameter name="warmupsteps" condition="int">100</parameter>
  DumpConfig==false Nothing (configurations, state) will be saved.
  Walker Samples are dumped every 1 steps.
</vmc>
    Restarting, cummulative properties:
      energy     = -7.432696841
      variance   = 0
      r2accepted = 1e-10
      r2proposed = 1e-10
  Set drift_modifier UNR parameter a = 1
 Using QMCCostFunction::QMCCostFunction
 Using Default Cost Function: Cost = <|E-E_ff|^2>
  Set drift_modifier UNR parameter a = 1.0000000000e+00
  EstimatorManagerBase::add replace LocalEnergy estimator.
<optimization-report>
<vmc stage="main" blocks="500">
  Cannot make clones again. Use existing 1 clones
  Initial partition of walkers 0 1 

  Using Particle by Particle moves
  Walker moves with drift
  Total Sample Size   =64000
  Walker distribution on root = 0 1 
===== Memory Usage after the buffer registration =====
Available memory on node 0, free + buffers : 2542 MB
Memory footprint by rank 0 on node 0       : 68 MB
==================================================
  Anonymous Buffer size per walker : 17376 Bytes.
MEMORY increase 0 MB VMC::resetRun
====================================================
  SimpleFixedNodeBranch::finalize after a VMC block
    QMC counter        = 5
    time step          = 0.5
    reference energy   = -7.47943
    reference variance = 0.238487
====================================================
  Execution time = 4.0218e+00
</vmc>
<opt stage="setup">
  <log>
   Reading configurations from h5FileRoot Default.s005
  QMCCostFunction is created with 1 threads.
  Using Nonlocal PP in Opt: no
   Number of samples loaded to each thread : 64000 
  VMC Eavg = -7.4794e+00
  VMC Evar = 2.3849e-01
  Total weights = 6.4000e+04
  Execution time = 1.2884e+00
  </log>
</opt>
<opt stage="main" walkers="64000">
  <log>

*****************************************
Building overlap and Hamiltonian matrices
*****************************************

Among totally 30 optimized parameters, largest LM parameter change : 5.5480e-02 at parameter 20

******************************************************************************
Init Cost =  -6.7076e+00    New Cost =  -6.7081e+00  Delta Cost =  -5.1247e-04
******************************************************************************

The new set of parameters is valid. Updating the trial wave function!

*****************************************************************************
Applying the update for shift_i =   1.0000e-02     and shift_s =   2.5000e-01
*****************************************************************************
  Execution time = 6.9669e-01
  </log>
  <optVariables href="Default.s005.opt.xml">
 uu_0                 5.747453e-02 1 1  ON 0
 uu_1                -1.103806e-02 1 1  ON 1
 uu_2                -2.545236e-02 1 1  ON 2
 uu_3                -7.371040e-02 1 1  ON 3
 uu_4                -8.445908e-02 1 1  ON 4
 uu_5                -8.988931e-02 1 1  ON 5
 uu_6                -9.075741e-02 1 1  ON 6
 uu_7                -7.939371e-02 1 1  ON 7
 uu_8                -6.324515e-02 1 1  ON 8
 uu_9                -3.687060e-02 1 1  ON 9
 ud_0                 6.861655e-01 1 1  ON 10
 ud_1                 4.404111e-01 1 1  ON 11
 ud_2                 3.372973e-01 1 1  ON 12
 ud_3                 2.929919e-01 1 1  ON 13
 ud_4                 2.301043e-01 1 1  ON 14
 ud_5                 1.826617e-01 1 1  ON 15
 ud_6                 1.315205e-01 1 1  ON 16
 ud_7                 8.532890e-02 1 1  ON 17
 ud_8                 4.721512e-02 1 1  ON 18
 ud_9                 2.093416e-02 1 1  ON 19
eLi_0                -6.010360e-01 1 1  ON 20
eLi_1                -3.536463e-01 1 1  ON 21
eLi_2                -3.789154e-01 1 1  ON 22
eLi_3                -2.151429e-01 1 1  ON 23
eLi_4                -1.580859e-01 1 1  ON 24
eLi_5                -7.313685e-02 1 1  ON 25
eLi_6                -1.738167e-02 1 1  ON 26
eLi_7                 3.624667e-02 1 1  ON 27
eLi_8                 5.623287e-02 1 1  ON 28
eLi_9                 5.157130e-02 1 1  ON 29
  </optVariables>
   Restore the number of walkers to 1, removing 0 walkers.
</opt>
</optimization-report>
  QMC Execution time = 6.007 secs

=========================================================
  Start QMCFixedSampleLinearOptimize
  File Root Default.s006 append = no 
=========================================================
  Skip QMCDriver::putQMCInfo 
  Resetting Properties of the walkers 1 x 12

=========================================================
  Start VMC
  File Root Default.s006 append = no 
=========================================================
Using existing walkers 
  Resetting Properties of the walkers 1 x 12

<vmc function="put">
  qmc_counter=1  my_counter=0
  time step      = 0.5
  blocks         = 500
  steps          = 128
  substeps       = 4
  current        = 0
  target samples = 6.4e+04
  walkers/mpi    = 1

  stepsbetweensamples = 1
  SpinMoves      = no
<parameter name="blocks" condition="int">500</parameter>
<parameter name="blocks_between_recompute" condition="int">0</parameter>
<parameter name="check_properties" condition="int">100</parameter>
<parameter name="checkproperties" condition="int">100</parameter>
<parameter name="current" condition="int">0</parameter>
<parameter name="dmcwalkersperthread" condition="real">6.4e+04</parameter>
<parameter name="maxcpusecs" condition="real">3.6e+05</parameter>
<parameter name="record_configs" condition="int">0</parameter>
<parameter name="record_walkers" condition="int">1</parameter>
<parameter name="recordconfigs" condition="int">0</parameter>
<parameter name="recordwalkers" condition="int">1</parameter>
<parameter name="rewind" condition="int">0</parameter>
<parameter name="samples" condition="real">6.4e+04</parameter>
<parameter name="samplesperthread" condition="real">6.4e+04</parameter>
<parameter name="spinmass" condition="double">1</parameter>
<parameter name="spinmoves" condition="string">no</parameter>
<parameter name="steps" condition="int">128</parameter>
<parameter name="stepsbetweensamples" condition="int">1</parameter>
<parameter name="store_configs" condition="int">0</parameter>
<parameter name="storeconfigs" condition="int">0</parameter>
<parameter name="sub_steps" condition="int">4</parameter>
<parameter name="substeps" condition="int">4</parameter>
<parameter name="tau" condition="au">0.5</parameter>
<parameter name="time_step" condition="au">0.5</parameter>
<parameter name="timestep" condition="au">0.5</parameter>
<parameter name="use_drift" condition="string">yes</parameter>
<parameter name="usedrift" condition="string">yes</parameter>
<parameter name="walkers" condition="int">1</parameter>
<parameter name="warmup_steps" condition="int">100</parameter>
<parameter name="warmupsteps" condition="int">100</parameter>
  DumpConfig==false Nothing (configurations, state) will be saved.
  Walker Samples are dumped every 1 steps.
</vmc>
    Restarting, cummulative properties:
      energy     = -7.44
      variance   = 0
      r2accepted = 1e-10
      r2proposed = 1e-10
  Set drift_modifier UNR parameter a = 1
 Using QMCCostFunction::QMCCostFunction
 Using Default Cost Function: Cost = <|E-E_ff|^2>
  Set drift_modifier UNR parameter a = 1.0000e+00
  EstimatorManagerBase::add replace LocalEnergy estimator.
<optimization-report>
<vmc stage="main" blocks="500">
  Cannot make clones again. Use existing 1 clones
  Initial partition of walkers 0 1 

  Using Particle by Particle moves
  Walker moves with drift
  Total Sample Size   =64000
  Walker distribution on root = 0 1 
===== Memory Usage after the buffer registration =====
Available memory on node 0, free + buffers : 2489 MB
Memory footprint by rank 0 on node 0       : 156 MB
==================================================
  Anonymous Buffer size per walker : 17376 Bytes.
MEMORY increase 0 MB VMC::resetRun
====================================================
  SimpleFixedNodeBranch::finalize after a VMC block
    QMC counter        = 6
    time step          = 0.5
    reference energy   = -7.47403
    reference variance = 0.229587
====================================================
  Execution time = 4.0554e+00
</vmc>
<opt stage="setup">
  <log>
   Reading configurations from h5FileRoot Default.s006
  QMCCostFunction is created with 1 threads.
  Using Nonlocal PP in Opt: no
   Number of samples loaded to each thread : 64000 
  VMC Eavg = -7.4740e+00
  VMC Evar = 2.2959e-01
  Total weights = 6.4000e+04
  Execution time = 1.2924e+00
  </log>
</opt>
<opt stage="main" walkers="64000">
  <log>

*****************************************
Building overlap and Hamiltonian matrices
*****************************************

Among totally 30 optimized parameters, largest LM parameter change : 5.7222e-02 at parameter 21

******************************************************************************
Init Cost =  -6.7037e+00    New Cost =  -6.7039e+00  Delta Cost =  -2.7587e-04
******************************************************************************

The new set of parameters is valid. Updating the trial wave function!

*****************************************************************************
Applying the update for shift_i =   1.0000e-02     and shift_s =   6.2500e-02
*****************************************************************************
  Execution time = 7.1883e-01
  </log>
  <optVariables href="Default.s006.opt.xml">
 uu_0                 6.509107e-02 1 1  ON 0
 uu_1                -1.700538e-02 1 1  ON 1
 uu_2                -3.516281e-02 1 1  ON 2
 uu_3                -8.270362e-02 1 1  ON 3
 uu_4                -9.611049e-02 1 1  ON 4
 uu_5                -1.024903e-01 1 1  ON 5
 uu_6                -1.013256e-01 1 1  ON 6
 uu_7                -9.093735e-02 1 1  ON 7
 uu_8                -7.110380e-02 1 1  ON 8
 uu_9                -4.144902e-02 1 1  ON 9
 ud_0                 7.074314e-01 1 1  ON 10
 ud_1                 4.627280e-01 1 1  ON 11
 ud_2                 3.568172e-01 1 1  ON 12
 ud_3                 3.086919e-01 1 1  ON 13
 ud_4                 2.428372e-01 1 1  ON 14
 ud_5                 1.949161e-01 1 1  ON 15
 ud_6                 1.395247e-01 1 1  ON 16
 ud_7                 8.993275e-02 1 1  ON 17
 ud_8                 4.505360e-02 1 1  ON 18
 ud_9                 1.742415e-02 1 1  ON 19
eLi_0                -6.557724e-01 1 1  ON 20
eLi_1                -4.108681e-01 1 1  ON 21
eLi_2                -4.237868e-01 1 1  ON 22
eLi_3                -2.631367e-01 1 1  ON 23
eLi_4                -1.950574e-01 1 1  ON 24
eLi_5                -9.982407e-02 1 1  ON 25
eLi_6                -3.821932e-02 1 1  ON 26
eLi_7                 1.043352e-02 1 1  ON 27
eLi_8                 4.137532e-02 1 1  ON 28
eLi_9                 4.733777e-02 1 1  ON 29
  </optVariables>
   Restore the number of walkers to 1, removing 0 walkers.
</opt>
</optimization-report>
  QMC Execution time = 6.067 secs

=========================================================
  Start QMCFixedSampleLinearOptimize
  File Root Default.s007 append = no 
=========================================================
  Skip QMCDriver::putQMCInfo 
  Resetting Properties of the walkers 1 x 12

=========================================================
  Start VMC
  File Root Default.s007 append = no 
=========================================================
Using existing walkers 
  Resetting Properties of the walkers 1 x 12

<vmc function="put">
  qmc_counter=2  my_counter=0
  time step      = 0.5
  blocks         = 500
  steps          = 128
  substeps       = 4
  current        = 0
  target samples = 6.4e+04
  walkers/mpi    = 1

  stepsbetweensamples = 1
  SpinMoves      = no
<parameter name="blocks" condition="int">500</parameter>
<parameter name="blocks_between_recompute" condition="int">0</parameter>
<parameter name="check_properties" condition="int">100</parameter>
<parameter name="checkproperties" condition="int">100</parameter>
<parameter name="current" condition="int">0</parameter>
<parameter name="dmcwalkersperthread" condition="real">6.4e+04</parameter>
<parameter name="maxcpusecs" condition="real">3.6e+05</parameter>
<parameter name="record_configs" condition="int">0</parameter>
<parameter name="record_walkers" condition="int">1</parameter>
<parameter name="recordconfigs" condition="int">0</parameter>
<parameter name="recordwalkers" condition="int">1</parameter>
<parameter name="rewind" condition="int">0</parameter>
<parameter name="samples" condition="real">6.4e+04</parameter>
<parameter name="samplesperthread" condition="real">6.4e+04</parameter>
<parameter name="spinmass" condition="double">1</parameter>
<parameter name="spinmoves" condition="string">no</parameter>
<parameter name="steps" condition="int">128</parameter>
<parameter name="stepsbetweensamples" condition="int">1</parameter>
<parameter name="store_configs" condition="int">0</parameter>
<parameter name="storeconfigs" condition="int">0</parameter>
<parameter name="sub_steps" condition="int">4</parameter>
<parameter name="substeps" condition="int">4</parameter>
<parameter name="tau" condition="au">0.5</parameter>
<parameter name="time_step" condition="au">0.5</parameter>
<parameter name="timestep" condition="au">0.5</parameter>
<parameter name="use_drift" condition="string">yes</parameter>
<parameter name="usedrift" condition="string">yes</parameter>
<parameter name="walkers" condition="int">1</parameter>
<parameter name="warmup_steps" condition="int">100</parameter>
<parameter name="warmupsteps" condition="int">100</parameter>
  DumpConfig==false Nothing (configurations, state) will be saved.
  Walker Samples are dumped every 1 steps.
</vmc>
    Restarting, cummulative properties:
      energy     = -7.445
      variance   = 0
      r2accepted = 1e-10
      r2proposed = 1e-10
  Set drift_modifier UNR parameter a = 1
 Using QMCCostFunction::QMCCostFunction
 Using Default Cost Function: Cost = <|E-E_ff|^2>
  Set drift_modifier UNR parameter a = 1.0000e+00
  EstimatorManagerBase::add replace LocalEnergy estimator.
<optimization-report>
<vmc stage="main" blocks="500">
  Cannot make clones again. Use existing 1 clones
  Initial partition of walkers 0 1 

  Using Particle by Particle moves
  Walker moves with drift
  Total Sample Size   =64000
  Walker distribution on root = 0 1 
===== Memory Usage after the buffer registration =====
Available memory on node 0, free + buffers : 2518 MB
Memory footprint by rank 0 on node 0       : 156 MB
==================================================
  Anonymous Buffer size per walker : 17376 Bytes.
MEMORY increase 0 MB VMC::resetRun
====================================================
  SimpleFixedNodeBranch::finalize after a VMC block
    QMC counter        = 7
    time step          = 0.5
    reference energy   = -7.47498
    reference variance = 0.237445
====================================================
  Execution time = 4.5130e+00
</vmc>
<opt stage="setup">
  <log>
   Reading configurations from h5FileRoot Default.s007
  QMCCostFunction is created with 1 threads.
  Using Nonlocal PP in Opt: no
   Number of samples loaded to each thread : 64000 
  VMC Eavg = -7.4750e+00
  VMC Evar = 2.3744e-01
  Total weights = 6.4000e+04
  Execution time = 1.4313e+00
  </log>
</opt>
<opt stage="main" walkers="64000">
  <log>

*****************************************
Building overlap and Hamiltonian matrices
*****************************************

Among totally 30 optimized parameters, largest LM parameter change : 6.1348e-02 at parameter 22

******************************************************************************
Init Cost =  -6.7037e+00    New Cost =  -6.7042e+00  Delta Cost =  -4.6115e-04
******************************************************************************

The new set of parameters is valid. Updating the trial wave function!

*****************************************************************************
Applying the update for shift_i =   1.0000e-02     and shift_s =   1.5625e-02
*****************************************************************************
  Execution time = 7.3725e-01
  </log>
  <optVariables href="Default.s007.opt.xml">
 uu_0                 6.076757e-02 1 1  ON 0
 uu_1                -4.112548e-02 1 1  ON 1
 uu_2                -4.718119e-02 1 1  ON 2
 uu_3                -9.644462e-02 1 1  ON 3
 uu_4                -1.055366e-01 1 1  ON 4
 uu_5                -1.116792e-01 1 1  ON 5
 uu_6                -1.085894e-01 1 1  ON 6
 uu_7                -9.719973e-02 1 1  ON 7
 uu_8                -7.619886e-02 1 1  ON 8
 uu_9                -4.756570e-02 1 1  ON 9
 ud_0                 7.354490e-01 1 1  ON 10
 ud_1                 4.881926e-01 1 1  ON 11
 ud_2                 3.855693e-01 1 1  ON 12
 ud_3                 3.381950e-01 1 1  ON 13
 ud_4                 2.762412e-01 1 1  ON 14
 ud_5                 2.217472e-01 1 1  ON 15
 ud_6                 1.589772e-01 1 1  ON 16
 ud_7                 1.062697e-01 1 1  ON 17
 ud_8                 5.675267e-02 1 1  ON 18
 ud_9                 2.729107e-02 1 1  ON 19
eLi_0                -7.154937e-01 1 1  ON 20
eLi_1                -4.694640e-01 1 1  ON 21
eLi_2                -4.851347e-01 1 1  ON 22
eLi_3                -3.141261e-01 1 1  ON 23
eLi_4                -2.483539e-01 1 1  ON 24
eLi_5                -1.473773e-01 1 1  ON 25
eLi_6                -7.120785e-02 1 1  ON 26
eLi_7                -2.787162e-03 1 1  ON 27
eLi_8                 3.634797e-02 1 1  ON 28
eLi_9                 5.304448e-02 1 1  ON 29
  </optVariables>
   Restore the number of walkers to 1, removing 0 walkers.
</opt>
</optimization-report>
  QMC Execution time = 6.682 secs

=========================================================
  Start QMCFixedSampleLinearOptimize
  File Root Default.s008 append = no 
=========================================================
  Skip QMCDriver::putQMCInfo 
  Resetting Properties of the walkers 1 x 12

=========================================================
  Start VMC
  File Root Default.s008 append = no 
=========================================================
Using existing walkers 
  Resetting Properties of the walkers 1 x 12

<vmc function="put">
  qmc_counter=3  my_counter=0
  time step      = 0.5
  blocks         = 500
  steps          = 128
  substeps       = 4
  current        = 0
  target samples = 6.4e+04
  walkers/mpi    = 1

  stepsbetweensamples = 1
  SpinMoves      = no
<parameter name="blocks" condition="int">500</parameter>
<parameter name="blocks_between_recompute" condition="int">0</parameter>
<parameter name="check_properties" condition="int">100</parameter>
<parameter name="checkproperties" condition="int">100</parameter>
<parameter name="current" condition="int">0</parameter>
<parameter name="dmcwalkersperthread" condition="real">6.4e+04</parameter>
<parameter name="maxcpusecs" condition="real">3.6e+05</parameter>
<parameter name="record_configs" condition="int">0</parameter>
<parameter name="record_walkers" condition="int">1</parameter>
<parameter name="recordconfigs" condition="int">0</parameter>
<parameter name="recordwalkers" condition="int">1</parameter>
<parameter name="rewind" condition="int">0</parameter>
<parameter name="samples" condition="real">6.4e+04</parameter>
<parameter name="samplesperthread" condition="real">6.4e+04</parameter>
<parameter name="spinmass" condition="double">1</parameter>
<parameter name="spinmoves" condition="string">no</parameter>
<parameter name="steps" condition="int">128</parameter>
<parameter name="stepsbetweensamples" condition="int">1</parameter>
<parameter name="store_configs" condition="int">0</parameter>
<parameter name="storeconfigs" condition="int">0</parameter>
<parameter name="sub_steps" condition="int">4</parameter>
<parameter name="substeps" condition="int">4</parameter>
<parameter name="tau" condition="au">0.5</parameter>
<parameter name="time_step" condition="au">0.5</parameter>
<parameter name="timestep" condition="au">0.5</parameter>
<parameter name="use_drift" condition="string">yes</parameter>
<parameter name="usedrift" condition="string">yes</parameter>
<parameter name="walkers" condition="int">1</parameter>
<parameter name="warmup_steps" condition="int">100</parameter>
<parameter name="warmupsteps" condition="int">100</parameter>
  DumpConfig==false Nothing (configurations, state) will be saved.
  Walker Samples are dumped every 1 steps.
</vmc>
    Restarting, cummulative properties:
      energy     = -7.449
      variance   = 0
      r2accepted = 1e-10
      r2proposed = 1e-10
  Set drift_modifier UNR parameter a = 1
 Using QMCCostFunction::QMCCostFunction
 Using Default Cost Function: Cost = <|E-E_ff|^2>
  Set drift_modifier UNR parameter a = 1.0000e+00
  EstimatorManagerBase::add replace LocalEnergy estimator.
<optimization-report>
<vmc stage="main" blocks="500">
  Cannot make clones again. Use existing 1 clones
  Initial partition of walkers 0 1 

  Using Particle by Particle moves
  Walker moves with drift
  Total Sample Size   =64000
  Walker distribution on root = 0 1 
===== Memory Usage after the buffer registration =====
Available memory on node 0, free + buffers : 2241 MB
Memory footprint by rank 0 on node 0       : 156 MB
==================================================
  Anonymous Buffer size per walker : 17376 Bytes.
MEMORY increase 0 MB VMC::resetRun
====================================================
  SimpleFixedNodeBranch::finalize after a VMC block
    QMC counter        = 8
    time step          = 0.5
    reference energy   = -7.47428
    reference variance = 0.239572
====================================================
  Execution time = 3.9724e+00
</vmc>
<opt stage="setup">
  <log>
   Reading configurations from h5FileRoot Default.s008
  QMCCostFunction is created with 1 threads.
  Using Nonlocal PP in Opt: no
   Number of samples loaded to each thread : 64000 
  VMC Eavg = -7.4743e+00
  VMC Evar = 2.3957e-01
  Total weights = 6.4000e+04
  Execution time = 1.3190e+00
  </log>
</opt>
<opt stage="main" walkers="64000">
  <log>

*****************************************
Building overlap and Hamiltonian matrices
*****************************************

Among totally 30 optimized parameters, largest LM parameter change : 5.7702e-02 at parameter 22

******************************************************************************
Init Cost =  -6.7029e+00    New Cost =  -6.7034e+00  Delta Cost =  -5.3139e-04
******************************************************************************

The new set of parameters is valid. Updating the trial wave function!

*****************************************************************************
Applying the update for shift_i =   1.0000e-02     and shift_s =   3.9062e-03
*****************************************************************************
  Execution time = 6.9990e-01
  </log>
  <optVariables href="Default.s008.opt.xml">
 uu_0                 6.029645e-02 1 1  ON 0
 uu_1                -5.311712e-02 1 1  ON 1
 uu_2                -5.730623e-02 1 1  ON 2
 uu_3                -1.081526e-01 1 1  ON 3
 uu_4                -1.187778e-01 1 1  ON 4
 uu_5                -1.263961e-01 1 1  ON 5
 uu_6                -1.268084e-01 1 1  ON 6
 uu_7                -1.161476e-01 1 1  ON 7
 uu_8                -9.139595e-02 1 1  ON 8
 uu_9                -5.879249e-02 1 1  ON 9
 ud_0                 7.613822e-01 1 1  ON 10
 ud_1                 5.171176e-01 1 1  ON 11
 ud_2                 4.134723e-01 1 1  ON 12
 ud_3                 3.616534e-01 1 1  ON 13
 ud_4                 2.911227e-01 1 1  ON 14
 ud_5                 2.354927e-01 1 1  ON 15
 ud_6                 1.732596e-01 1 1  ON 16
 ud_7                 1.169666e-01 1 1  ON 17
 ud_8                 6.630524e-02 1 1  ON 18
 ud_9                 2.764608e-02 1 1  ON 19
eLi_0                -7.707360e-01 1 1  ON 20
eLi_1                -5.236757e-01 1 1  ON 21
eLi_2                -5.428369e-01 1 1  ON 22
eLi_3                -3.707893e-01 1 1  ON 23
eLi_4                -3.043480e-01 1 1  ON 24
eLi_5                -1.957303e-01 1 1  ON 25
eLi_6                -1.075433e-01 1 1  ON 26
eLi_7                -3.292651e-02 1 1  ON 27
eLi_8                 8.947338e-03 1 1  ON 28
eLi_9                 4.603650e-02 1 1  ON 29
  </optVariables>
   Restore the number of walkers to 1, removing 0 walkers.
</opt>
</optimization-report>
  QMC Execution time = 5.992 secs

=========================================================
  Start QMCFixedSampleLinearOptimize
  File Root Default.s009 append = no 
=========================================================
  Skip QMCDriver::putQMCInfo 
  Resetting Properties of the walkers 1 x 12

=========================================================
  Start VMC
  File Root Default.s009 append = no 
=========================================================
Using existing walkers 
  Resetting Properties of the walkers 1 x 12

<vmc function="put">
  qmc_counter=4  my_counter=0
  time step      = 0.5
  blocks         = 500
  steps          = 128
  substeps       = 4
  current        = 0
  target samples = 6.4e+04
  walkers/mpi    = 1

  stepsbetweensamples = 1
  SpinMoves      = no
<parameter name="blocks" condition="int">500</parameter>
<parameter name="blocks_between_recompute" condition="int">0</parameter>
<parameter name="check_properties" condition="int">100</parameter>
<parameter name="checkproperties" condition="int">100</parameter>
<parameter name="current" condition="int">0</parameter>
<parameter name="dmcwalkersperthread" condition="real">6.4e+04</parameter>
<parameter name="maxcpusecs" condition="real">3.6e+05</parameter>
<parameter name="record_configs" condition="int">0</parameter>
<parameter name="record_walkers" condition="int">1</parameter>
<parameter name="recordconfigs" condition="int">0</parameter>
<parameter name="recordwalkers" condition="int">1</parameter>
<parameter name="rewind" condition="int">0</parameter>
<parameter name="samples" condition="real">6.4e+04</parameter>
<parameter name="samplesperthread" condition="real">6.4e+04</parameter>
<parameter name="spinmass" condition="double">1</parameter>
<parameter name="spinmoves" condition="string">no</parameter>
<parameter name="steps" condition="int">128</parameter>
<parameter name="stepsbetweensamples" condition="int">1</parameter>
<parameter name="store_configs" condition="int">0</parameter>
<parameter name="storeconfigs" condition="int">0</parameter>
<parameter name="sub_steps" condition="int">4</parameter>
<parameter name="substeps" condition="int">4</parameter>
<parameter name="tau" condition="au">0.5</parameter>
<parameter name="time_step" condition="au">0.5</parameter>
<parameter name="timestep" condition="au">0.5</parameter>
<parameter name="use_drift" condition="string">yes</parameter>
<parameter name="usedrift" condition="string">yes</parameter>
<parameter name="walkers" condition="int">1</parameter>
<parameter name="warmup_steps" condition="int">100</parameter>
<parameter name="warmupsteps" condition="int">100</parameter>
  DumpConfig==false Nothing (configurations, state) will be saved.
  Walker Samples are dumped every 1 steps.
</vmc>
    Restarting, cummulative properties:
      energy     = -7.452
      variance   = 0
      r2accepted = 1e-10
      r2proposed = 1e-10
  Set drift_modifier UNR parameter a = 1
 Using QMCCostFunction::QMCCostFunction
 Using Default Cost Function: Cost = <|E-E_ff|^2>
  Set drift_modifier UNR parameter a = 1.0000e+00
  EstimatorManagerBase::add replace LocalEnergy estimator.
<optimization-report>
<vmc stage="main" blocks="500">
  Cannot make clones again. Use existing 1 clones
  Initial partition of walkers 0 1 

  Using Particle by Particle moves
  Walker moves with drift
  Total Sample Size   =64000
  Walker distribution on root = 0 1 
===== Memory Usage after the buffer registration =====
Available memory on node 0, free + buffers : 2252 MB
Memory footprint by rank 0 on node 0       : 156 MB
==================================================
  Anonymous Buffer size per walker : 17376 Bytes.
MEMORY increase 0 MB VMC::resetRun
====================================================
  SimpleFixedNodeBranch::finalize after a VMC block
    QMC counter        = 9
    time step          = 0.5
    reference energy   = -7.47971
    reference variance = 0.241487
====================================================
  Execution time = 3.9398e+00
</vmc>
<opt stage="setup">
  <log>
   Reading configurations from h5FileRoot Default.s009
  QMCCostFunction is created with 1 threads.
  Using Nonlocal PP in Opt: no
   Number of samples loaded to each thread : 64000 
  VMC Eavg = -7.4797e+00
  VMC Evar = 2.4149e-01
  Total weights = 6.4000e+04
  Execution time = 1.2917e+00
  </log>
</opt>
<opt stage="main" walkers="64000">
  <log>

*****************************************
Building overlap and Hamiltonian matrices
*****************************************

Among totally 30 optimized parameters, largest LM parameter change : 5.2577e-02 at parameter 20

******************************************************************************
Init Cost =  -6.7076e+00    New Cost =  -6.7079e+00  Delta Cost =  -2.8480e-04
******************************************************************************

The new set of parameters is valid. Updating the trial wave function!

*****************************************************************************
Applying the update for shift_i =   1.0000e-02     and shift_s =   3.9062e-03
*****************************************************************************
  Execution time = 7.0282e-01
  </log>
  <optVariables href="Default.s009.opt.xml">
 uu_0                 5.970414e-02 1 1  ON 0
 uu_1                -5.136164e-02 1 1  ON 1
 uu_2                -5.285562e-02 1 1  ON 2
 uu_3                -1.030344e-01 1 1  ON 3
 uu_4                -1.179021e-01 1 1  ON 4
 uu_5                -1.257929e-01 1 1  ON 5
 uu_6                -1.261989e-01 1 1  ON 6
 uu_7                -1.172643e-01 1 1  ON 7
 uu_8                -9.480460e-02 1 1  ON 8
 uu_9                -6.778290e-02 1 1  ON 9
 ud_0                 7.615910e-01 1 1  ON 10
 ud_1                 5.183217e-01 1 1  ON 11
 ud_2                 4.114550e-01 1 1  ON 12
 ud_3                 3.556091e-01 1 1  ON 13
 ud_4                 2.864031e-01 1 1  ON 14
 ud_5                 2.350855e-01 1 1  ON 15
 ud_6                 1.820003e-01 1 1  ON 16
 ud_7                 1.341922e-01 1 1  ON 17
 ud_8                 8.623874e-02 1 1  ON 18
 ud_9                 4.375190e-02 1 1  ON 19
eLi_0                -8.233133e-01 1 1  ON 20
eLi_1                -5.746775e-01 1 1  ON 21
eLi_2                -5.852346e-01 1 1  ON 22
eLi_3                -4.053523e-01 1 1  ON 23
eLi_4                -3.269616e-01 1 1  ON 24
eLi_5                -2.183872e-01 1 1  ON 25
eLi_6                -1.392727e-01 1 1  ON 26
eLi_7                -5.679224e-02 1 1  ON 27
eLi_8                -9.132662e-05 1 1  ON 28
eLi_9                 3.260305e-02 1 1  ON 29
  </optVariables>
   Restore the number of walkers to 1, removing 0 walkers.
</opt>
</optimization-report>
  QMC Execution time = 5.935 secs

=========================================================
  Start QMCFixedSampleLinearOptimize
  File Root Default.s010 append = no 
=========================================================
  Skip QMCDriver::putQMCInfo 
  Resetting Properties of the walkers 1 x 12

=========================================================
  Start VMC
  File Root Default.s010 append = no 
=========================================================
Using existing walkers 
  Resetting Properties of the walkers 1 x 12

<vmc function="put">
  qmc_counter=5  my_counter=0
  time step      = 0.5
  blocks         = 500
  steps          = 128
  substeps       = 4
  current        = 0
  target samples = 6.4e+04
  walkers/mpi    = 1

  stepsbetweensamples = 1
  SpinMoves      = no
<parameter name="blocks" condition="int">500</parameter>
<parameter name="blocks_between_recompute" condition="int">0</parameter>
<parameter name="check_properties" condition="int">100</parameter>
<parameter name="checkproperties" condition="int">100</parameter>
<parameter name="current" condition="int">0</parameter>
<parameter name="dmcwalkersperthread" condition="real">6.4e+04</parameter>
<parameter name="maxcpusecs" condition="real">3.6e+05</parameter>
<parameter name="record_configs" condition="int">0</parameter>
<parameter name="record_walkers" condition="int">1</parameter>
<parameter name="recordconfigs" condition="int">0</parameter>
<parameter name="recordwalkers" condition="int">1</parameter>
<parameter name="rewind" condition="int">0</parameter>
<parameter name="samples" condition="real">6.4e+04</parameter>
<parameter name="samplesperthread" condition="real">6.4e+04</parameter>
<parameter name="spinmass" condition="double">1</parameter>
<parameter name="spinmoves" condition="string">no</parameter>
<parameter name="steps" condition="int">128</parameter>
<parameter name="stepsbetweensamples" condition="int">1</parameter>
<parameter name="store_configs" condition="int">0</parameter>
<parameter name="storeconfigs" condition="int">0</parameter>
<parameter name="sub_steps" condition="int">4</parameter>
<parameter name="substeps" condition="int">4</parameter>
<parameter name="tau" condition="au">0.5</parameter>
<parameter name="time_step" condition="au">0.5</parameter>
<parameter name="timestep" condition="au">0.5</parameter>
<parameter name="use_drift" condition="string">yes</parameter>
<parameter name="usedrift" condition="string">yes</parameter>
<parameter name="walkers" condition="int">1</parameter>
<parameter name="warmup_steps" condition="int">100</parameter>
<parameter name="warmupsteps" condition="int">100</parameter>
  DumpConfig==false Nothing (configurations, state) will be saved.
  Walker Samples are dumped every 1 steps.
</vmc>
    Restarting, cummulative properties:
      energy     = -7.455
      variance   = 0
      r2accepted = 1e-10
      r2proposed = 1e-10
  Set drift_modifier UNR parameter a = 1
 Using QMCCostFunction::QMCCostFunction
 Using Default Cost Function: Cost = <|E-E_ff|^2>
  Set drift_modifier UNR parameter a = 1.0000e+00
  EstimatorManagerBase::add replace LocalEnergy estimator.
<optimization-report>
<vmc stage="main" blocks="500">
  Cannot make clones again. Use existing 1 clones
  Initial partition of walkers 0 1 

  Using Particle by Particle moves
  Walker moves with drift
  Total Sample Size   =64000
  Walker distribution on root = 0 1 
===== Memory Usage after the buffer registration =====
Available memory on node 0, free + buffers : 2220 MB
Memory footprint by rank 0 on node 0       : 171 MB
==================================================
  Anonymous Buffer size per walker : 17376 Bytes.
MEMORY increase 0 MB VMC::resetRun
[...]
 uu_7                -9.196658e-02 1 1  ON 7
 uu_8                -7.642664e-02 1 1  ON 8
 uu_9                -5.547133e-02 1 1  ON 9
 ud_0                 8.317771e-01 1 1  ON 10
 ud_1                 5.862584e-01 1 1  ON 11
 ud_2                 4.803925e-01 1 1  ON 12
 ud_3                 4.228130e-01 1 1  ON 13
 ud_4                 3.505663e-01 1 1  ON 14
 ud_5                 2.903982e-01 1 1  ON 15
 ud_6                 2.225777e-01 1 1  ON 16
 ud_7                 1.595361e-01 1 1  ON 17
 ud_8                 1.007990e-01 1 1  ON 18
 ud_9                 5.759878e-02 1 1  ON 19
eLi_0                -8.893008e-01 1 1  ON 20
eLi_1                -6.423833e-01 1 1  ON 21
eLi_2                -6.470769e-01 1 1  ON 22
eLi_3                -4.566449e-01 1 1  ON 23
eLi_4                -3.790265e-01 1 1  ON 24
eLi_5                -2.755122e-01 1 1  ON 25
eLi_6                -1.817879e-01 1 1  ON 26
eLi_7                -9.527744e-02 1 1  ON 27
eLi_8                -4.326006e-02 1 1  ON 28
eLi_9                 9.070880e-03 1 1  ON 29
  </optVariables>
   Restore the number of walkers to 1, removing 0 walkers.
</opt>
</optimization-report>
  QMC Execution time = 6.151 secs

=========================================================
  Start QMCFixedSampleLinearOptimize
  File Root Default.s013 append = no 
=========================================================
  Skip QMCDriver::putQMCInfo 
  Resetting Properties of the walkers 1 x 12

=========================================================
  Start VMC
  File Root Default.s013 append = no 
=========================================================
Using existing walkers 
  Resetting Properties of the walkers 1 x 12

<vmc function="put">
  qmc_counter=8  my_counter=0
  time step      = 0.5
  blocks         = 500
  steps          = 128
  substeps       = 4
  current        = 0
  target samples = 6.4e+04
  walkers/mpi    = 1

  stepsbetweensamples = 1
  SpinMoves      = no
<parameter name="blocks" condition="int">500</parameter>
<parameter name="blocks_between_recompute" condition="int">0</parameter>
<parameter name="check_properties" condition="int">100</parameter>
<parameter name="checkproperties" condition="int">100</parameter>
<parameter name="current" condition="int">0</parameter>
<parameter name="dmcwalkersperthread" condition="real">6.4e+04</parameter>
<parameter name="maxcpusecs" condition="real">3.6e+05</parameter>
<parameter name="record_configs" condition="int">0</parameter>
<parameter name="record_walkers" condition="int">1</parameter>
<parameter name="recordconfigs" condition="int">0</parameter>
<parameter name="recordwalkers" condition="int">1</parameter>
<parameter name="rewind" condition="int">0</parameter>
<parameter name="samples" condition="real">6.4e+04</parameter>
<parameter name="samplesperthread" condition="real">6.4e+04</parameter>
<parameter name="spinmass" condition="double">1</parameter>
<parameter name="spinmoves" condition="string">no</parameter>
<parameter name="steps" condition="int">128</parameter>
<parameter name="stepsbetweensamples" condition="int">1</parameter>
<parameter name="store_configs" condition="int">0</parameter>
<parameter name="storeconfigs" condition="int">0</parameter>
<parameter name="sub_steps" condition="int">4</parameter>
<parameter name="substeps" condition="int">4</parameter>
<parameter name="tau" condition="au">0.5</parameter>
<parameter name="time_step" condition="au">0.5</parameter>
<parameter name="timestep" condition="au">0.5</parameter>
<parameter name="use_drift" condition="string">yes</parameter>
<parameter name="usedrift" condition="string">yes</parameter>
<parameter name="walkers" condition="int">1</parameter>
<parameter name="warmup_steps" condition="int">100</parameter>
<parameter name="warmupsteps" condition="int">100</parameter>
  DumpConfig==false Nothing (configurations, state) will be saved.
  Walker Samples are dumped every 1 steps.
</vmc>
    Restarting, cummulative properties:
      energy     = -7.459
      variance   = 0
      r2accepted = 1e-10
      r2proposed = 1e-10
  Set drift_modifier UNR parameter a = 1
 Using QMCCostFunction::QMCCostFunction
 Using Default Cost Function: Cost = <|E-E_ff|^2>
  Set drift_modifier UNR parameter a = 1.0000e+00
  EstimatorManagerBase::add replace LocalEnergy estimator.
<optimization-report>
<vmc stage="main" blocks="500">
  Cannot make clones again. Use existing 1 clones
  Initial partition of walkers 0 1 

  Using Particle by Particle moves
  Walker moves with drift
  Total Sample Size   =64000
  Walker distribution on root = 0 1 
===== Memory Usage after the buffer registration =====
Available memory on node 0, free + buffers : 1920 MB
Memory footprint by rank 0 on node 0       : 171 MB
==================================================
  Anonymous Buffer size per walker : 17376 Bytes.
MEMORY increase 0 MB VMC::resetRun
====================================================
  SimpleFixedNodeBranch::finalize after a VMC block
    QMC counter        = 13
    time step          = 0.5
    reference energy   = -7.47566
    reference variance = 0.238472
====================================================
  Execution time = 4.4991e+00
</vmc>
<opt stage="setup">
  <log>
   Reading configurations from h5FileRoot Default.s013
  QMCCostFunction is created with 1 threads.
  Using Nonlocal PP in Opt: no
   Number of samples loaded to each thread : 64000 
  VMC Eavg = -7.4757e+00
  VMC Evar = 2.3847e-01
  Total weights = 6.4000e+04
  Execution time = 1.5619e+00
  </log>
</opt>
<opt stage="main" walkers="64000">
  <log>

*****************************************
Building overlap and Hamiltonian matrices
*****************************************

Among totally 30 optimized parameters, largest LM parameter change : 4.5592e-02 at parameter 22

******************************************************************************
Init Cost =  -6.7042e+00    New Cost =  -6.7045e+00  Delta Cost =  -2.5301e-04
******************************************************************************

The new set of parameters is valid. Updating the trial wave function!

*****************************************************************************
Applying the update for shift_i =   1.0000e-02     and shift_s =   3.9062e-03
*****************************************************************************
  Execution time = 7.5190e-01
  </log>
  <optVariables href="Default.s013.opt.xml">
 uu_0                 8.402017e-02 1 1  ON 0
 uu_1                 9.207484e-03 1 1  ON 1
 uu_2                -9.164156e-03 1 1  ON 2
 uu_3                -6.267917e-02 1 1  ON 3
 uu_4                -7.472392e-02 1 1  ON 4
 uu_5                -8.802655e-02 1 1  ON 5
 uu_6                -9.206284e-02 1 1  ON 6
 uu_7                -9.029245e-02 1 1  ON 7
 uu_8                -6.981605e-02 1 1  ON 8
 uu_9                -5.074190e-02 1 1  ON 9
 ud_0                 8.278748e-01 1 1  ON 10
 ud_1                 5.827352e-01 1 1  ON 11
 ud_2                 4.757956e-01 1 1  ON 12
 ud_3                 4.160600e-01 1 1  ON 13
 ud_4                 3.406033e-01 1 1  ON 14
 ud_5                 2.825674e-01 1 1  ON 15
 ud_6                 2.171436e-01 1 1  ON 16
 ud_7                 1.619719e-01 1 1  ON 17
 ud_8                 9.887201e-02 1 1  ON 18
 ud_9                 5.035400e-02 1 1  ON 19
eLi_0                -9.259761e-01 1 1  ON 20
eLi_1                -6.808849e-01 1 1  ON 21
eLi_2                -6.926685e-01 1 1  ON 22
eLi_3                -4.940188e-01 1 1  ON 23
eLi_4                -4.094672e-01 1 1  ON 24
eLi_5                -2.925587e-01 1 1  ON 25
eLi_6                -2.061202e-01 1 1  ON 26
eLi_7                -1.152610e-01 1 1  ON 27
eLi_8                -5.485117e-02 1 1  ON 28
eLi_9                 1.766001e-03 1 1  ON 29
  </optVariables>
   Restore the number of walkers to 1, removing 0 walkers.
</opt>
</optimization-report>
  QMC Execution time = 6.813 secs

=========================================================
  Start QMCFixedSampleLinearOptimize
  File Root Default.s014 append = no 
=========================================================
  Skip QMCDriver::putQMCInfo 
  Resetting Properties of the walkers 1 x 12

=========================================================
  Start VMC
  File Root Default.s014 append = no 
=========================================================
Using existing walkers 
  Resetting Properties of the walkers 1 x 12

<vmc function="put">
  qmc_counter=9  my_counter=0
  time step      = 0.5
  blocks         = 500
  steps          = 128
  substeps       = 4
  current        = 0
  target samples = 6.4e+04
  walkers/mpi    = 1

  stepsbetweensamples = 1
  SpinMoves      = no
<parameter name="blocks" condition="int">500</parameter>
<parameter name="blocks_between_recompute" condition="int">0</parameter>
<parameter name="check_properties" condition="int">100</parameter>
<parameter name="checkproperties" condition="int">100</parameter>
<parameter name="current" condition="int">0</parameter>
<parameter name="dmcwalkersperthread" condition="real">6.4e+04</parameter>
<parameter name="maxcpusecs" condition="real">3.6e+05</parameter>
<parameter name="record_configs" condition="int">0</parameter>
<parameter name="record_walkers" condition="int">1</parameter>
<parameter name="recordconfigs" condition="int">0</parameter>
<parameter name="recordwalkers" condition="int">1</parameter>
<parameter name="rewind" condition="int">0</parameter>
<parameter name="samples" condition="real">6.4e+04</parameter>
<parameter name="samplesperthread" condition="real">6.4e+04</parameter>
<parameter name="spinmass" condition="double">1</parameter>
<parameter name="spinmoves" condition="string">no</parameter>
<parameter name="steps" condition="int">128</parameter>
<parameter name="stepsbetweensamples" condition="int">1</parameter>
<parameter name="store_configs" condition="int">0</parameter>
<parameter name="storeconfigs" condition="int">0</parameter>
<parameter name="sub_steps" condition="int">4</parameter>
<parameter name="substeps" condition="int">4</parameter>
<parameter name="tau" condition="au">0.5</parameter>
<parameter name="time_step" condition="au">0.5</parameter>
<parameter name="timestep" condition="au">0.5</parameter>
<parameter name="use_drift" condition="string">yes</parameter>
<parameter name="usedrift" condition="string">yes</parameter>
<parameter name="walkers" condition="int">1</parameter>
<parameter name="warmup_steps" condition="int">100</parameter>
<parameter name="warmupsteps" condition="int">100</parameter>
  DumpConfig==false Nothing (configurations, state) will be saved.
  Walker Samples are dumped every 1 steps.
</vmc>
    Restarting, cummulative properties:
      energy     = -7.46
      variance   = 0
      r2accepted = 1e-10
      r2proposed = 1e-10
  Set drift_modifier UNR parameter a = 1
 Using QMCCostFunction::QMCCostFunction
 Using Default Cost Function: Cost = <|E-E_ff|^2>
  Set drift_modifier UNR parameter a = 1.0000e+00
  EstimatorManagerBase::add replace LocalEnergy estimator.
<optimization-report>
<vmc stage="main" blocks="500">
  Cannot make clones again. Use existing 1 clones
  Initial partition of walkers 0 1 

  Using Particle by Particle moves
  Walker moves with drift
  Total Sample Size   =64000
  Walker distribution on root = 0 1 
===== Memory Usage after the buffer registration =====
Available memory on node 0, free + buffers : 1622 MB
Memory footprint by rank 0 on node 0       : 171 MB
==================================================
  Anonymous Buffer size per walker : 17376 Bytes.
MEMORY increase 0 MB VMC::resetRun
====================================================
  SimpleFixedNodeBranch::finalize after a VMC block
    QMC counter        = 14
    time step          = 0.5
    reference energy   = -7.47418
    reference variance = 0.237363
====================================================
  Execution time = 4.0290e+00
</vmc>
<opt stage="setup">
  <log>
   Reading configurations from h5FileRoot Default.s014
  QMCCostFunction is created with 1 threads.
  Using Nonlocal PP in Opt: no
   Number of samples loaded to each thread : 64000 
  VMC Eavg = -7.4742e+00
  VMC Evar = 2.3736e-01
  Total weights = 6.4000e+04
  Execution time = 1.2915e+00
  </log>
</opt>
<opt stage="main" walkers="64000">
  <log>

*****************************************
Building overlap and Hamiltonian matrices
*****************************************

Among totally 30 optimized parameters, largest LM parameter change : 5.5436e-02 at parameter 27

******************************************************************************
Init Cost =  -6.7030e+00    New Cost =  -6.7035e+00  Delta Cost =  -5.1238e-04
******************************************************************************

The new set of parameters is valid. Updating the trial wave function!

*****************************************************************************
Applying the update for shift_i =   1.0000e-02     and shift_s =   3.9062e-03
*****************************************************************************
  Execution time = 6.9471e-01
  </log>
  <optVariables href="Default.s014.opt.xml">
 uu_0                 8.365832e-02 1 1  ON 0
 uu_1                -5.414420e-03 1 1  ON 1
 uu_2                -1.933792e-02 1 1  ON 2
 uu_3                -7.844542e-02 1 1  ON 3
 uu_4                -9.192982e-02 1 1  ON 4
 uu_5                -1.038157e-01 1 1  ON 5
 uu_6                -1.054659e-01 1 1  ON 6
 uu_7                -1.020974e-01 1 1  ON 7
 uu_8                -8.442258e-02 1 1  ON 8
 uu_9                -6.555692e-02 1 1  ON 9
 ud_0                 8.143092e-01 1 1  ON 10
 ud_1                 5.657203e-01 1 1  ON 11
 ud_2                 4.584024e-01 1 1  ON 12
 ud_3                 4.036656e-01 1 1  ON 13
 ud_4                 3.354218e-01 1 1  ON 14
 ud_5                 2.780342e-01 1 1  ON 15
 ud_6                 2.163768e-01 1 1  ON 16
 ud_7                 1.557013e-01 1 1  ON 17
 ud_8                 9.860501e-02 1 1  ON 18
 ud_9                 4.755849e-02 1 1  ON 19
eLi_0                -9.714160e-01 1 1  ON 20
eLi_1                -7.245558e-01 1 1  ON 21
eLi_2                -7.253807e-01 1 1  ON 22
eLi_3                -5.366087e-01 1 1  ON 23
eLi_4                -4.540301e-01 1 1  ON 24
eLi_5                -3.380905e-01 1 1  ON 25
eLi_6                -2.482772e-01 1 1  ON 26
eLi_7                -1.706970e-01 1 1  ON 27
eLi_8                -8.983456e-02 1 1  ON 28
eLi_9                -2.293919e-02 1 1  ON 29
  </optVariables>
   Restore the number of walkers to 1, removing 0 walkers.
</opt>
</optimization-report>
  QMC Execution time = 6.016 secs
BRANCH resetRun
  Continue with the same input as the previous block.
 SimpleFixedNodeBranch::resetRun detected changes in <parameter>'s 
 BranchMode : 0000001100 0000001100
 iParam (old):                100                 1                14                 0                 1                 1                 1                 0
 iParam (new):                100                 1                14                 0                 1                 1                 1                 0
 vParam (old):                0.5               0.5      -7.375310514      -7.375310514                 1                 1                 1                 1      0.7974306002      -7.375310514                 1                 1                10                 1                 1                 1                 1
 vParam (new):                0.5               0.5      -7.375310514      -7.375310514                 1                 1                 1                 1      0.7974306002      -7.375310514                 1                 1                10                 1                 1                 1                 1

=========================================================
  Start VMC
  File Root Default.s015 append = no 
=========================================================
Resetting walkers
  Using the current 1 walkers.
  Total number of walkers: 1
  Total weight: 1
  Resetting Properties of the walkers 1 x 12

<vmc function="put">
  qmc_counter=0  my_counter=0
  time step      = 0.5
  blocks         = 5000
  steps          = 3000
  substeps       = 8
  current        = 0
  target samples = 16000
  walkers/mpi    = 1

  stepsbetweensamples = 937
  SpinMoves      = no
<parameter name="blocks" condition="int">5000</parameter>
<parameter name="blocks_between_recompute" condition="int">0</parameter>
<parameter name="check_properties" condition="int">100</parameter>
<parameter name="checkproperties" condition="int">100</parameter>
<parameter name="current" condition="int">0</parameter>
<parameter name="dmcwalkersperthread" condition="real">16000</parameter>
<parameter name="maxcpusecs" condition="real">360000</parameter>
<parameter name="record_configs" condition="int">0</parameter>
<parameter name="record_walkers" condition="int">937</parameter>
<parameter name="recordconfigs" condition="int">0</parameter>
<parameter name="recordwalkers" condition="int">937</parameter>
<parameter name="rewind" condition="int">0</parameter>
<parameter name="samples" condition="real">16000</parameter>
<parameter name="samplesperthread" condition="real">16000</parameter>
<parameter name="spinmass" condition="double">1</parameter>
<parameter name="spinmoves" condition="string">no</parameter>
<parameter name="steps" condition="int">3000</parameter>
<parameter name="stepsbetweensamples" condition="int">937</parameter>
<parameter name="store_configs" condition="int">0</parameter>
<parameter name="storeconfigs" condition="int">0</parameter>
<parameter name="sub_steps" condition="int">8</parameter>
<parameter name="substeps" condition="int">8</parameter>
<parameter name="tau" condition="au">0.5</parameter>
<parameter name="time_step" condition="au">0.5</parameter>
<parameter name="timestep" condition="au">0.5</parameter>
<parameter name="use_drift" condition="string">yes</parameter>
<parameter name="usedrift" condition="string">yes</parameter>
<parameter name="walkers" condition="int">1</parameter>
<parameter name="warmup_steps" condition="int">100</parameter>
<parameter name="warmupsteps" condition="int">100</parameter>
  DumpConfig==false Nothing (configurations, state) will be saved.
  Walker Samples are dumped every 937 steps.
</vmc>
  Set drift_modifier UNR parameter a = 1
  EstimatorManagerBase::add replace LocalEnergy estimator.
  Cannot make clones again. Use existing 1 clones
  Initial partition of walkers 0 1 

  Using Particle by Particle moves
  Walker moves with drift
  Total Sample Size   =16000
  Walker distribution on root = 0 1 
===== Memory Usage after the buffer registration =====
Available memory on node 0, free + buffers : 1603 MB
Memory footprint by rank 0 on node 0       : 171 MB
==================================================
  Anonymous Buffer size per walker : 17376 Bytes.
MEMORY increase 0 MB VMC::resetRun
====================================================
  SimpleFixedNodeBranch::finalize after a VMC block
    QMC counter        = 15
    time step          = 0.5
    reference energy   = -7.47793
    reference variance = 0.243777
====================================================
  QMC Execution time = 1774 secs
  Total Execution time = 2018 secs

=========================================================
  A new xml input file : Default.s015.cont.xml

Use --enable-timers=<value> command line option to increase or decrease level of timing information
Stack timer profile
Timer                           Inclusive_time  Exclusive_time  Calls       Time_per_call
Total                           2018.5135     0.1477              1    2018.513537558
  QMCFixedSampleLinearOptimize    67.8449    67.8449             14       4.846066999
  Startup                          0.1618     0.1618              1       0.161759306
  VMC                           1950.3591  1950.3591              2     975.179568828
