          ******************************************************
          *         GAMESS VERSION =  1 MAY 2013 (R1)          *
          *             FROM IOWA STATE UNIVERSITY             *
          * M.W.SCHMIDT, K.K.BALDRIDGE, J.A.BOATZ, S.T.ELBERT, *
          *   M.S.GORDON, J.H.JENSEN, S.KOSEKI, N.MATSUNAGA,   *
          *          K.A.NGUYEN, S.J.SU, T.L.WINDUS,           *
          *       TOGETHER WITH M.DUPUIS, J.A.MONTGOMERY       *
          *         J.COMPUT.CHEM.  14, 1347-1363(1993)        *
          **************** 64 BIT INTEL VERSION ****************

  SINCE 1993, STUDENTS AND POSTDOCS WORKING AT IOWA STATE UNIVERSITY
  AND ALSO IN THEIR VARIOUS JOBS AFTER LEAVING ISU HAVE MADE IMPORTANT
  CONTRIBUTIONS TO THE CODE:
     IVANA ADAMOVIC, CHRISTINE AIKENS, YURI ALEXEEV, POOJA ARORA,
     ANDREY ASADCHEV, ROB BELL, PRADIPTA BANDYOPADHYAY, JONATHAN BENTZ,
     BRETT BODE, GALINA CHABAN, WEI CHEN, CHEOL HO CHOI, PAUL DAY,
     ALBERT DEFUSCO, TIM DUDLEY, DMITRI FEDOROV, GRAHAM FLETCHER,
     MARK FREITAG, KURT GLAESEMANN, DAN KEMP, GRANT MERRILL,
     NORIYUKI MINEZAWA, JONATHAN MULLIN, TAKESHI NAGATA,
     SEAN NEDD, HEATHER NETZLOFF, BOSILJKA NJEGIC, RYAN OLSON, MIKE PAK,
     JIM SHOEMAKER, LYUDMILA SLIPCHENKO, SAROM SOK, JIE SONG,
     TETSUYA TAKETSUGU, SIMON WEBB, SOOHAENG YOO, FEDERICO ZAHARIEV

  ADDITIONAL CODE HAS BEEN PROVIDED BY COLLABORATORS IN OTHER GROUPS:
     IOWA STATE UNIVERSITY:
          JOE IVANIC, LAIMUTIS BYTAUTAS, KLAUS RUEDENBERG
     UNIVERSITY OF TOKYO: KIMIHIKO HIRAO, TAKAHITO NAKAJIMA,
          TAKAO TSUNEDA, MUNEAKI KAMIYA, SUSUMU YANAGISAWA,
          KIYOSHI YAGI, MAHITO CHIBA, SEIKEN TOKURA, NAOAKI KAWAKAMI
     UNIVERSITY OF AARHUS: FRANK JENSEN
     UNIVERSITY OF IOWA: VISVALDAS KAIRYS, HUI LI
     NATIONAL INST. OF STANDARDS AND TECHNOLOGY: WALT STEVENS, DAVID GARMER
     UNIVERSITY OF PISA: BENEDETTA MENNUCCI, JACOPO TOMASI
     UNIVERSITY OF MEMPHIS: HENRY KURTZ, PRAKASHAN KORAMBATH
     UNIVERSITY OF ALBERTA: TOBY ZENG, MARIUSZ KLOBUKOWSKI
     UNIVERSITY OF NEW ENGLAND: MARK SPACKMAN
     MIE UNIVERSITY: HIROAKI UMEDA
     MICHIGAN STATE UNIVERSITY:
          KAROL KOWALSKI, MARTA WLOCH, JEFFREY GOUR, JESSE LUTZ,
          WEI LI, PIOTR PIECUCH
     UNIVERSITY OF SILESIA: MONIKA MUSIAL, STANISLAW KUCHARSKI
     FACULTES UNIVERSITAIRES NOTRE-DAME DE LA PAIX:
          OLIVIER QUINET, BENOIT CHAMPAGNE
     UNIVERSITY OF CALIFORNIA - SANTA BARBARA: BERNARD KIRTMAN
     INSTITUTE FOR MOLECULAR SCIENCE:
          KAZUYA ISHIMURA, MICHIO KATOUDA, AND SHIGERU NAGASE
     UNIVERSITY OF NOTRE DAME: DAN CHIPMAN
     KYUSHU UNIVERSITY:
          HARUYUKI NAKANO,
          FENG LONG GU, JACEK KORCHOWIEC, MARCIN MAKOWSKI, AND YURIKO AOKI,
          HIROTOSHI MORI AND EISAKU MIYOSHI
     PENNSYLVANIA STATE UNIVERSITY:
          TZVETELIN IORDANOV, CHET SWALINA, JONATHAN SKONE,
          SHARON HAMMES-SCHIFFER
     WASEDA UNIVERSITY:
          MASATO KOBAYASHI, TOMOKO AKAMA, TSUGUKI TOUMA,
          TAKESHI YOSHIKAWA, YASUHIRO IKABATA, HIROMI NAKAI
     NANJING UNIVERSITY: SHUHUA LI
     UNIVERSITY OF NEBRASKA:
          PEIFENG SU, DEJUN SI, NANDUN THELLAMUREGE, YALI WANG, HUI LI
     UNIVERSITY OF ZURICH:
          ROBERTO PEVERATI, KIM BALDRIDGE
     N. COPERNICUS UNIVERSITY AND JACKSON STATE UNIVERSITY:
          MARIA BARYSZ


 PARALLEL VERSION RUNNING ON    28 PROCESSORS IN     1 NODES.

 EXECUTION OF GAMESS BEGUN Mon Nov 16 18:34:11 2020

            ECHO OF THE FIRST FEW INPUT CARDS -
 INPUT CARD> $contrl scftyp=uhf runtyp=energy nzvar=0 ispher=-1                             
 INPUT CARD>     coord=unique icharg=0 mult=1 $end                                          
 INPUT CARD> $system timlim=300 mwords=15000 memddi=2000 $end                               
 INPUT CARD> $GUESS  GUESS=HUCKEL $END                                                      
 INPUT CARD> $data                                                                          
 INPUT CARD>W4- 4.0 ang UHF with avtz                                                       
 INPUT CARD>Cnv 2                                                                           
 INPUT CARD>                                                                                
 INPUT CARD>H  1      0.00000000 0.7569685 -0.5858752                                       
 INPUT CARD>S   3                                                                           
 INPUT CARD>1         1.301000E+01           1.968500E-02                                   
 INPUT CARD>2         1.962000E+00           1.379770E-01                                   
 INPUT CARD>3         4.446000E-01           4.781480E-01                                   
 INPUT CARD>S   1                                                                           
 INPUT CARD>1         1.220000E-01           1.000000E+00                                   
 INPUT CARD>P   1                                                                           
 INPUT CARD>1         7.270000E-01           1.0000000                                      
 INPUT CARD>                                                                                
 INPUT CARD>O  8      0.0000000 0.0000000  0.0000000                                        
 INPUT CARD>S   8                                                                           
 INPUT CARD>1         1.172000E+04           7.100000E-04                                   
 INPUT CARD>2         1.759000E+03           5.470000E-03                                   
 INPUT CARD>3         4.008000E+02           2.783700E-02                                   
 INPUT CARD>4         1.137000E+02           1.048000E-01                                   
 INPUT CARD>5         3.703000E+01           2.830620E-01                                   
 INPUT CARD>6         1.327000E+01           4.487190E-01                                   
 INPUT CARD>7         5.025000E+00           2.709520E-01                                   
 INPUT CARD>8         1.013000E+00           1.545800E-02                                   
 INPUT CARD>S   8                                                                           
 INPUT CARD>1         1.172000E+04          -1.600000E-04                                   
 INPUT CARD>2         1.759000E+03          -1.263000E-03                                   
 INPUT CARD>3         4.008000E+02          -6.267000E-03                                   
 INPUT CARD>4         1.137000E+02          -2.571600E-02                                   
 INPUT CARD>5         3.703000E+01          -7.092400E-02                                   
 INPUT CARD>6         1.327000E+01          -1.654110E-01                                   
 INPUT CARD>7         5.025000E+00          -1.169550E-01                                   
 INPUT CARD>8         1.013000E+00           5.573680E-01                                   
 INPUT CARD>S   1                                                                           
 INPUT CARD>1         3.023000E-01           1.000000E+00                                   
 INPUT CARD>P   3                                                                           
 INPUT CARD>1         1.770000E+01           4.301800E-02                                   
 INPUT CARD>2         3.854000E+00           2.289130E-01                                   
 INPUT CARD>3         1.046000E+00           5.087280E-01                                   
 INPUT CARD>P   1                                                                           
 INPUT CARD>1         2.753000E-01           1.000000E+00                                   
 INPUT CARD>D   1                                                                           
 INPUT CARD>1         1.185000E+00           1.0000000                                      
 INPUT CARD>                                                                                
 INPUT CARD> $end                                                                           
 INPUT CARD>                                                                                
 ********** WORDS OF MEMORY AVAILABLE


     RUN TITLE
     ---------
 W4- 4.0 ang UHF with avtz                                                       

 THE POINT GROUP OF THE MOLECULE IS CNV     
 THE ORDER OF THE PRINCIPAL AXIS IS     2
 *** WARNING! ATOM   1 SHELL    1 TYPE S HAS NORMALIZATION   1.70173870
 *** WARNING! ATOM   3 SHELL    7 TYPE S HAS NORMALIZATION   0.99950133
 *** WARNING! ATOM   3 SHELL    8 TYPE S HAS NORMALIZATION   1.96527132
 *** WARNING! ATOM   3 SHELL   10 TYPE P HAS NORMALIZATION   1.45704510

 ATOM      ATOMIC                      COORDINATES (BOHR)
           CHARGE         X                   Y                   Z
 H           1.0    -0.0000000000       -1.4304630463       -1.1071435910
 H           1.0     0.0000000000        1.4304630463       -1.1071435910
 O           8.0     0.0000000000        0.0000000000        0.0000000000

          INTERNUCLEAR DISTANCES (ANGS.)
          ------------------------------

                1 H          2 H          3 O     

   1 H       0.0000000    1.5139370 *  0.9572100 *
   2 H       1.5139370 *  0.0000000    0.9572100 *
   3 O       0.9572100 *  0.9572100 *  0.0000000  

  * ... LESS THAN  3.000


     ATOMIC BASIS SET
     ----------------
 THE CONTRACTED PRIMITIVE FUNCTIONS HAVE BEEN UNNORMALIZED
 THE CONTRACTED BASIS FUNCTIONS ARE NOW NORMALIZED TO UNITY

  SHELL TYPE  PRIMITIVE        EXPONENT          CONTRACTION COEFFICIENT(S)

 H         

      4   S       1            13.0100000    0.033498726390
      4   S       2             1.9620000    0.234800801174
      4   S       3             0.4446000    0.813682957883

      5   S       4             0.1220000    1.000000000000

      6   P       5             0.7270000    1.000000000000

 O         

      7   S       6         11720.0000000    0.000709645947
      7   S       7          1759.0000000    0.005467272292
      7   S       8           400.8000000    0.027823118610
      7   S       9           113.7000000    0.104747739711
      7   S      10            37.0300000    0.282920846357
      7   S      11            13.2700000    0.448495238698
      7   S      12             5.0250000    0.270816885213
      7   S      13             1.0130000    0.015450291607

      8   S      14         11720.0000000   -0.000314443412
      8   S      15          1759.0000000   -0.002482137681
      8   S      16           400.8000000   -0.012316355382
      8   S      17           113.7000000   -0.050538917344
      8   S      18            37.0300000   -0.139384903316
      8   S      19            13.2700000   -0.325077494818
      8   S      20             5.0250000   -0.229848307588
      8   S      21             1.0130000    1.095379346788

      9   S      22             0.3023000    1.000000000000

     10   P      23            17.7000000    0.062679166282
     10   P      24             3.8540000    0.333536565879
     10   P      25             1.0460000    0.741239641640

     11   P      26             0.2753000    1.000000000000

     12   D      27             1.1850000    1.000000000000

 TOTAL NUMBER OF BASIS SET SHELLS             =   12
 NUMBER OF CARTESIAN GAUSSIAN BASIS FUNCTIONS =   25
 NUMBER OF ELECTRONS                          =   10
 CHARGE OF MOLECULE                           =    0
 SPIN MULTIPLICITY                            =    1
 NUMBER OF OCCUPIED ORBITALS (ALPHA)          =    5
 NUMBER OF OCCUPIED ORBITALS (BETA )          =    5
 TOTAL NUMBER OF ATOMS                        =    3
 THE NUCLEAR REPULSION ENERGY IS        9.1948643542

     $NEO OPTIONS
     ------------
     NUNIQN=       0     BASNUC=DZSNB        NEOSCF=NONE    
     NEOCI =NONE         NUMULT=       2     NUCST =       1
     NAUXNB=       0     VNUCEX=       F     NUCOPT=       F
     NTAUXB=       0     NEOHSS=       F     HSSINI=READH   
     HSSUPD=POWELLUP     DIRNUC=       F     SYMNUC=       F
     QMTOLN= 0.0E+00     USRDEX=       F
     POSNEO=       F     POSPRP=       F
     NEONCI=       F     LOCORB=       0

     $CONTRL OPTIONS
     ---------------
 SCFTYP=UHF          RUNTYP=ENERGY       EXETYP=RUN     
 MPLEVL=       0     CITYP =NONE         CCTYP =NONE         VBTYP =NONE    
 DFTTYP=NONE         TDDFT =NONE    
 MULT  =       1     ICHARG=       0     NZVAR =       0     COORD =UNIQUE  
 PP    =NONE         RELWFN=NONE         LOCAL =NONE         NUMGRD=       F
 ISPHER=      -1     NOSYM =       0     MAXIT =      30     UNITS =ANGS    
 PLTORB=       F     MOLPLT=       F     AIMPAC=       F     FRIEND=        
 NPRINT=       7     IREST =       0     GEOM  =INPUT   
 NORMF =       0     NORMP =       0     ITOL  =      20     ICUT  =       9
 INTTYP=BEST         GRDTYP=BEST         QMTTOL= 1.0E-06

     $SYSTEM OPTIONS
     ---------------
  REPLICATED MEMORY= 15000000000 WORDS (ON EVERY NODE).
 DISTRIBUTED MEMDDI=        2000 MILLION WORDS IN AGGREGATE,
 MEMDDI DISTRIBUTED OVER  28 PROCESSORS IS    71428571 WORDS/PROCESSOR.
 TOTAL MEMORY REQUESTED ON EACH PROCESSOR= 15071428571 WORDS.
 TIMLIM=         300.00 MINUTES, OR       0.2 DAYS.
 PARALL= T  BALTYP=  DLB     KDIAG=    0  COREFL= F
 MXSEQ2=     300 MXSEQ3=     150

          ----------------
          PROPERTIES INPUT
          ----------------

     MOMENTS            FIELD           POTENTIAL          DENSITY
 IEMOM =       1   IEFLD =       0   IEPOT =       0   IEDEN =       0
 WHERE =COMASS     WHERE =NUCLEI     WHERE =NUCLEI     WHERE =NUCLEI  
 OUTPUT=BOTH       OUTPUT=BOTH       OUTPUT=BOTH       OUTPUT=BOTH    
 IEMINT=       0   IEFINT=       0                     IEDINT=       0
                                                       MORB  =       0
          EXTRAPOLATION IN EFFECT
          SOSCF IN EFFECT
 ORBITAL PRINTING OPTION: NPREO=     1    25     2     1

     -------------------------------
     INTEGRAL TRANSFORMATION OPTIONS
     -------------------------------
     NWORD  =            0
     CUTOFF = 1.0E-09     MPTRAN =       0
     DIRTRF =       F     AOINTS =DUP     

          ----------------------
          INTEGRAL INPUT OPTIONS
          ----------------------
 NOPK  =       1 NORDER=       0 SCHWRZ=       F

     ------------------------------------------
     THE POINT GROUP IS CNV, NAXIS= 2, ORDER= 4
     ------------------------------------------

     DIMENSIONS OF THE SYMMETRY SUBSPACES ARE
 A1  =   12     A2  =    2     B1  =    4     B2  =    7

 ..... DONE SETTING UP THE RUN .....
 CPU     0: STEP CPU TIME=     8.27 TOTAL CPU TIME=        8.3 (    0.1 MIN)
 TOTAL WALL CLOCK TIME=       41.4 SECONDS, CPU UTILIZATION IS  19.96%

          ********************
          1 ELECTRON INTEGRALS
          ********************
 ...... END OF ONE-ELECTRON INTEGRALS ......
 CPU     0: STEP CPU TIME=     0.41 TOTAL CPU TIME=        8.7 (    0.1 MIN)
 TOTAL WALL CLOCK TIME=       43.5 SECONDS, CPU UTILIZATION IS  19.97%

          -------------
          GUESS OPTIONS
          -------------
          GUESS =HUCKEL            NORB  =       0          NORDER=       0
          MIX   =       F          PRTMO =       F          PUNMO =       F
          TOLZ  = 1.0E-08          TOLE  = 1.0E-05
          SYMDEN=       F          PURIFY=       F

 INITIAL GUESS ORBITALS GENERATED BY HUCKEL   ROUTINE.
 HUCKEL GUESS REQUIRES      6979 WORDS.

 SYMMETRIES FOR INITIAL GUESS ORBITALS FOLLOW.  ALPHA SET(S).
     5 ORBITALS ARE OCCUPIED (    1 CORE ORBITALS).
     2=A1       3=B2       4=A1       5=B1       6=B2       7=A1       8=A1  
     9=A1      10=A1      11=A1      12=A1      13=A1      14=A1      15=A1  

 SYMMETRIES FOR INITIAL GUESS ORBITALS FOLLOW.   BETA SET(S).
     5 ORBITALS ARE OCCUPIED (    1 CORE ORBITALS).
     2=A1       3=B2       4=A1       5=B1       6=B2       7=A1       8=A1  
     9=A1      10=A1      11=A1      12=A1      13=A1      14=A1      15=A1  
 ...... END OF INITIAL ORBITAL SELECTION ......
 CPU     0: STEP CPU TIME=     0.00 TOTAL CPU TIME=        8.7 (    0.1 MIN)
 TOTAL WALL CLOCK TIME=       43.5 SECONDS, CPU UTILIZATION IS  19.96%

                    ----------------------
                    AO INTEGRAL TECHNOLOGY
                    ----------------------
     S,P,L SHELL ROTATED AXIS INTEGRALS, REPROGRAMMED BY
        KAZUYA ISHIMURA (IMS) AND JOSE SIERRA (SYNSTAR).
     S,P,D,L SHELL ROTATED AXIS INTEGRALS PROGRAMMED BY
        KAZUYA ISHIMURA (INSTITUTE FOR MOLECULAR SCIENCE).
     S,P,D,F,G SHELL TO TOTAL QUARTET ANGULAR MOMENTUM SUM 5,
        ERIC PROGRAM BY GRAHAM FLETCHER (ELORET AND NASA ADVANCED
        SUPERCOMPUTING DIVISION, AMES RESEARCH CENTER).
     S,P,D,F,G,L SHELL GENERAL RYS QUADRATURE PROGRAMMED BY
        MICHEL DUPUIS (PACIFIC NORTHWEST NATIONAL LABORATORY).

          --------------------
          2 ELECTRON INTEGRALS
          --------------------

 THE -PK- OPTION IS OFF, THE INTEGRALS ARE NOT IN SUPERMATRIX FORM.
 STORING   15000 INTEGRALS/RECORD ON DISK, USING 12 BYTES/INTEGRAL.
 TWO ELECTRON INTEGRAL EVALUATION REQUIRES   90474 WORDS OF MEMORY.
 II,JST,KST,LST =  1  1  1  1 NREC =         1 INTLOC =    1
 II,JST,KST,LST =  2  1  1  1 NREC =         1 INTLOC =    1
 II,JST,KST,LST =  3  1  1  1 NREC =         1 INTLOC =    1
 II,JST,KST,LST =  4  1  1  1 NREC =         1 INTLOC =    1
 II,JST,KST,LST =  5  1  1  1 NREC =         1 INTLOC =    5
 II,JST,KST,LST =  6  1  1  1 NREC =         1 INTLOC =   32
 II,JST,KST,LST =  7  1  1  1 NREC =         1 INTLOC =  283
 II,JST,KST,LST =  8  1  1  1 NREC =         1 INTLOC =  506
 II,JST,KST,LST =  9  1  1  1 NREC =         1 INTLOC =  806
 II,JST,KST,LST = 10  1  1  1 NREC =         1 INTLOC = 1201
 II,JST,KST,LST = 11  1  1  1 NREC =         1 INTLOC = 2662
 II,JST,KST,LST = 12  1  1  1 NREC =         1 INTLOC = 5050
 TOTAL NUMBER OF NONZERO TWO-ELECTRON INTEGRALS =               13863
         28 INTEGRAL RECORDS WERE STORED ON DISK FILE  8.
  ...... END OF TWO-ELECTRON INTEGRALS .....
 CPU     0: STEP CPU TIME=     0.36 TOTAL CPU TIME=        9.0 (    0.2 MIN)
 TOTAL WALL CLOCK TIME=       45.2 SECONDS, CPU UTILIZATION IS  20.00%

          ---------------------------
                  UHF SCF CALCULATION
          ---------------------------

     NUCLEAR ENERGY =         9.1948643542
     MAXIT = 30     NPUNCH=  2     MULT=  1
     EXTRAP=T  DAMP=F  SHIFT=F  RSTRCT=F  DIIS=F  SOSCF=T
     DENSITY MATRIX CONV=  1.00E-05
     SOSCF WILL OPTIMIZE     100 ALPHA AND     100 BETA ROTATION ANGLES.
     SOGTOL= 2.500E-01
     MEMORY REQUIRED FOR UHF/ROHF ITERS=     38050 WORDS.

 ITER EX      TOTAL ENERGY        E CHANGE  DENSITY CHANGE    ORB. GRAD 
   1  0      -75.7653902085   -75.7653902085   0.153202242   0.000000000
          ---------------START SECOND ORDER SCF---------------
   2  1      -76.0144789637    -0.2490887552   0.053813918   0.043343291
   3  2      -76.0260887270    -0.0116097634   0.020623641   0.012082838
   4  3      -76.0271092977    -0.0010205706   0.003848233   0.001917121
   5  4      -76.0271329847    -0.0000236871   0.001743281   0.000917886
   6  5      -76.0271384079    -0.0000054231   0.000208128   0.000156084
   7  6      -76.0271385636    -0.0000001557   0.000050537   0.000029489
   8  7      -76.0271385684    -0.0000000048   0.000020481   0.000007821
   9  8      -76.0271385689    -0.0000000005   0.000001791   0.000001081
  10  9      -76.0271385689    -0.0000000000   0.000000473   0.000000260

          -----------------
          DENSITY CONVERGED
          -----------------
     TIME TO FORM FOCK OPERATORS=       5.3 SECONDS (       0.5 SEC/ITER)
     TIME TO SOLVE SCF EQUATIONS=       0.0 SECONDS (       0.0 SEC/ITER)

 FINAL UHF ENERGY IS      -76.0271385689 AFTER  10 ITERATIONS

          --------------------
          SPIN SZ   =    0.000
          S-SQUARED =   -0.000
          --------------------

  ----- ALPHA SET ----- 

          ------------
          EIGENVECTORS
          ------------

                      1          2          3          4          5
                  -20.5518    -1.3370    -0.6996    -0.5669    -0.4935
                     A1         A1         B2         A1         B1  
    1  H  1  S   -0.000168   0.193665  -0.327960  -0.206622   0.000000
    2  H  1  S    0.000205   0.011037  -0.089724  -0.042832   0.000000
    3  H  1  X    0.000000   0.000000   0.000000   0.000000   0.031058
    4  H  1  Y   -0.000421   0.036897  -0.023326  -0.030759   0.000000
    5  H  1  Z   -0.000340   0.020053  -0.032651   0.008450   0.000000
    6  H  2  S   -0.000168   0.193665   0.327960  -0.206622   0.000000
    7  H  2  S    0.000205   0.011037   0.089724  -0.042832   0.000000
    8  H  2  X    0.000000   0.000000   0.000000   0.000000   0.031058
    9  H  2  Y    0.000421  -0.036897  -0.023326   0.030759   0.000000
   10  H  2  Z   -0.000340   0.020053   0.032651   0.008450   0.000000
   11  O  3  S    1.001003  -0.008074   0.000000  -0.002828   0.000000
   12  O  3  S    0.002115   0.441100   0.000000   0.153479   0.000000
   13  O  3  S   -0.001055   0.369316   0.000000   0.364946   0.000000
   14  O  3  X    0.000000   0.000000   0.000000   0.000000   0.631288
   15  O  3  Y    0.000000   0.000000   0.490121   0.000000   0.000000
   16  O  3  Z   -0.001642  -0.079125   0.000000   0.546013   0.000000
   17  O  3  X    0.000000   0.000000   0.000000   0.000000   0.495543
   18  O  3  Y    0.000000   0.000000   0.221784   0.000000   0.000000
   19  O  3  Z    0.000395   0.013659   0.000000   0.364033   0.000000
   20  O  3 XX   -0.001204  -0.000010   0.000000   0.005986   0.000000
   21  O  3 YY   -0.001065   0.005469   0.000000  -0.002566   0.000000
   22  O  3 ZZ   -0.001112   0.004565   0.000000  -0.025071   0.000000
   23  O  3 XY    0.000000   0.000000   0.000000   0.000000   0.000000
   24  O  3 XZ    0.000000   0.000000   0.000000   0.000000  -0.018183
   25  O  3 YZ    0.000000   0.000000  -0.026803   0.000000   0.000000

                      6          7          8          9         10
                    0.1834     0.2561     0.7892     0.8543     1.1590
                     A1         B2         B2         A1         A1  
    1  H  1  S   -0.059999   0.026151   0.944413   0.787492   0.534942
    2  H  1  S   -0.838001   1.444337  -0.686120  -0.547329   0.087634
    3  H  1  X    0.000000   0.000000   0.000000   0.000000   0.000000
    4  H  1  Y   -0.013338   0.020829  -0.073990  -0.296302   0.094052
    5  H  1  Z   -0.012615   0.017132  -0.152966  -0.059245   0.244320
    6  H  2  S   -0.059999  -0.026151  -0.944413   0.787492   0.534942
    7  H  2  S   -0.838001  -1.444337   0.686120  -0.547329   0.087634
    8  H  2  X    0.000000   0.000000   0.000000   0.000000   0.000000
    9  H  2  Y    0.013338   0.020829  -0.073990   0.296302  -0.094052
   10  H  2  Z   -0.012615  -0.017132   0.152966  -0.059245   0.244320
   11  O  3  S   -0.056603   0.000000   0.000000  -0.064686  -0.031112
   12  O  3  S    0.080634   0.000000   0.000000  -0.255403  -0.147617
   13  O  3  S    1.067944   0.000000   0.000000   0.317081  -0.565155
   14  O  3  X    0.000000   0.000000   0.000000   0.000000   0.000000
   15  O  3  Y    0.000000   0.283209   0.267777   0.000000   0.000000
   16  O  3  Z   -0.189067   0.000000   0.000000   0.329236  -0.749622
   17  O  3  X    0.000000   0.000000   0.000000   0.000000   0.000000
   18  O  3  Y    0.000000   0.671009   0.461475   0.000000   0.000000
   19  O  3  Z   -0.341190   0.000000   0.000000  -0.009699   1.264670
   20  O  3 XX   -0.041074   0.000000   0.000000  -0.092375  -0.048072
   21  O  3 YY   -0.026218   0.000000   0.000000   0.093208  -0.042749
   22  O  3 ZZ   -0.022401   0.000000   0.000000   0.001789  -0.063081
   23  O  3 XY    0.000000   0.000000   0.000000   0.000000   0.000000
   24  O  3 XZ    0.000000   0.000000   0.000000   0.000000   0.000000
   25  O  3 YZ    0.000000  -0.021238   0.111759   0.000000   0.000000

                     11         12         13         14         15
                    1.2000     1.2530     1.4236     1.4761     1.6746
                     B1         B2         A1         A2         B1  
    1  H  1  S    0.000000   0.379424   0.219596   0.000000   0.000000
    2  H  1  S    0.000000   0.825739  -0.274739   0.000000   0.000000
    3  H  1  X    0.007905   0.000000   0.000000   0.685602   0.767138
    4  H  1  Y    0.000000   0.302652   0.305653   0.000000   0.000000
    5  H  1  Z    0.000000   0.186704  -0.518884   0.000000   0.000000
    6  H  2  S    0.000000  -0.379424   0.219596   0.000000   0.000000
    7  H  2  S    0.000000  -0.825739  -0.274739   0.000000   0.000000
    8  H  2  X    0.007905   0.000000   0.000000  -0.685602   0.767138
    9  H  2  Y    0.000000   0.302652  -0.305653   0.000000   0.000000
   10  H  2  Z    0.000000  -0.186704  -0.518884   0.000000   0.000000
   11  O  3  S    0.000000   0.000000  -0.285967   0.000000   0.000000
   12  O  3  S    0.000000   0.000000  -0.635902   0.000000   0.000000
   13  O  3  S    0.000000   0.000000   1.065551   0.000000   0.000000
   14  O  3  X   -0.967741   0.000000   0.000000   0.000000  -0.020594
   15  O  3  Y    0.000000  -0.734020   0.000000   0.000000   0.000000
   16  O  3  Z    0.000000   0.000000  -0.086183   0.000000   0.000000
   17  O  3  X    1.025447   0.000000   0.000000   0.000000  -0.633399
   18  O  3  Y    0.000000   1.764489   0.000000   0.000000   0.000000
   19  O  3  Z    0.000000   0.000000   0.551579   0.000000   0.000000
   20  O  3 XX    0.000000   0.000000  -0.158472   0.000000   0.000000
   21  O  3 YY    0.000000   0.000000  -0.187391   0.000000   0.000000
   22  O  3 ZZ    0.000000   0.000000  -0.015767   0.000000   0.000000
   23  O  3 XY    0.000000   0.000000   0.000000  -0.131270   0.000000
   24  O  3 XZ    0.003569   0.000000   0.000000   0.000000  -0.160802
   25  O  3 YZ    0.000000  -0.044623   0.000000   0.000000   0.000000

                     16         17         18         19         20
                    1.7459     1.9347     2.4528     2.4673     3.2854
                     A1         B2         B2         A1         B1  
    1  H  1  S   -0.827965   0.387931   0.295819  -0.539978   0.000000
    2  H  1  S   -0.379156   0.091564   0.330005  -0.175764   0.000000
    3  H  1  X    0.000000   0.000000   0.000000   0.000000   0.398518
    4  H  1  Y   -0.331809  -0.472019   0.724450  -0.776875   0.000000
    5  H  1  Z    0.158353   0.693114   0.555251  -0.551706   0.000000
    6  H  2  S   -0.827965  -0.387931  -0.295819  -0.539978   0.000000
    7  H  2  S   -0.379156  -0.091564  -0.330005  -0.175764   0.000000
    8  H  2  X    0.000000   0.000000   0.000000   0.000000   0.398518
    9  H  2  Y    0.331809  -0.472019   0.724450   0.776875   0.000000
   10  H  2  Z    0.158353  -0.693114  -0.555251  -0.551706   0.000000
   11  O  3  S   -0.669350   0.000000   0.000000   0.199351   0.000000
   12  O  3  S   -1.306225   0.000000   0.000000   0.481757   0.000000
   13  O  3  S    3.202332   0.000000   0.000000   0.892897   0.000000
   14  O  3  X    0.000000   0.000000   0.000000   0.000000   0.011407
   15  O  3  Y    0.000000  -0.010343   0.839488   0.000000   0.000000
   16  O  3  Z    0.012868   0.000000   0.000000  -0.693700   0.000000
   17  O  3  X    0.000000   0.000000   0.000000   0.000000  -0.311822
   18  O  3  Y    0.000000   0.901854   0.152887   0.000000   0.000000
   19  O  3  Z   -1.102126   0.000000   0.000000  -0.227117   0.000000
   20  O  3 XX   -0.109027   0.000000   0.000000   0.337834   0.000000
   21  O  3 YY   -0.273607   0.000000   0.000000  -0.052102   0.000000
   22  O  3 ZZ   -0.369969   0.000000   0.000000   0.047245   0.000000
   23  O  3 XY    0.000000   0.000000   0.000000   0.000000   0.000000
   24  O  3 XZ    0.000000   0.000000   0.000000   0.000000   1.042831
   25  O  3 YZ    0.000000   0.029420   0.138737   0.000000   0.000000

                     21         22         23         24         25
                    3.3387     3.5100     3.8615     4.1473     5.9655
                     A2         A1         A1         B2         A1  
    1  H  1  S    0.000000  -0.308772  -1.225783  -1.087380   0.247184
    2  H  1  S    0.000000  -0.039779  -0.197211  -0.288647  -0.186362
    3  H  1  X    0.371634   0.000000   0.000000   0.000000   0.000000
    4  H  1  Y    0.000000  -0.354107  -0.613109  -0.606336   0.213625
    5  H  1  Z    0.000000   0.314271  -0.489548  -0.493642   0.181945
    6  H  2  S    0.000000  -0.308772  -1.225783   1.087380   0.247184
    7  H  2  S    0.000000  -0.039779  -0.197211   0.288647  -0.186362
    8  H  2  X   -0.371634   0.000000   0.000000   0.000000   0.000000
    9  H  2  Y    0.000000   0.354107   0.613109  -0.606336  -0.213625
   10  H  2  Z    0.000000   0.314271  -0.489548   0.493642   0.181945
   11  O  3  S    0.000000  -0.078998  -0.120036   0.000000   0.322743
   12  O  3  S    0.000000  -0.132389  -0.083334   0.000000   1.654432
   13  O  3  S    0.000000   0.576886   2.313184   0.000000   1.444407
   14  O  3  X    0.000000   0.000000   0.000000   0.000000   0.000000
   15  O  3  Y    0.000000   0.000000   0.000000  -0.469472   0.000000
   16  O  3  Z    0.000000  -0.020186  -0.399678   0.000000   0.184687
   17  O  3  X    0.000000   0.000000   0.000000   0.000000   0.000000
   18  O  3  Y    0.000000   0.000000   0.000000  -1.145046   0.000000
   19  O  3  Z    0.000000  -0.540764  -0.915552   0.000000   0.023222
   20  O  3 XX    0.000000  -0.408305  -1.131054   0.000000  -1.360044
   21  O  3 YY    0.000000  -0.706533   0.870018   0.000000  -1.593847
   22  O  3 ZZ    0.000000   1.070588   0.065432   0.000000  -1.483540
   23  O  3 XY    1.066308   0.000000   0.000000   0.000000   0.000000
   24  O  3 XZ    0.000000   0.000000   0.000000   0.000000   0.000000
   25  O  3 YZ    0.000000   0.000000   0.000000   1.325571   0.000000

  ----- BETA SET ----- 

          ------------
          EIGENVECTORS
          ------------

                      1          2          3          4          5
                  -20.5518    -1.3370    -0.6996    -0.5669    -0.4935
                     A1         A1         B2         A1         B1  
    1  H  1  S   -0.000168   0.193665  -0.327960  -0.206622   0.000000
    2  H  1  S    0.000205   0.011037  -0.089724  -0.042832   0.000000
    3  H  1  X    0.000000   0.000000   0.000000   0.000000   0.031058
    4  H  1  Y   -0.000421   0.036897  -0.023326  -0.030759   0.000000
    5  H  1  Z   -0.000340   0.020053  -0.032651   0.008450   0.000000
    6  H  2  S   -0.000168   0.193665   0.327960  -0.206622   0.000000
    7  H  2  S    0.000205   0.011037   0.089724  -0.042832   0.000000
    8  H  2  X    0.000000   0.000000   0.000000   0.000000   0.031058
    9  H  2  Y    0.000421  -0.036897  -0.023326   0.030759   0.000000
   10  H  2  Z   -0.000340   0.020053   0.032651   0.008450   0.000000
   11  O  3  S    1.001003  -0.008074   0.000000  -0.002828   0.000000
   12  O  3  S    0.002115   0.441100   0.000000   0.153479   0.000000
   13  O  3  S   -0.001055   0.369316   0.000000   0.364946   0.000000
   14  O  3  X    0.000000   0.000000   0.000000   0.000000   0.631288
   15  O  3  Y    0.000000   0.000000   0.490121   0.000000   0.000000
   16  O  3  Z   -0.001642  -0.079125   0.000000   0.546013   0.000000
   17  O  3  X    0.000000   0.000000   0.000000   0.000000   0.495543
   18  O  3  Y    0.000000   0.000000   0.221784   0.000000   0.000000
   19  O  3  Z    0.000395   0.013659   0.000000   0.364033   0.000000
   20  O  3 XX   -0.001204  -0.000010   0.000000   0.005986   0.000000
   21  O  3 YY   -0.001065   0.005469   0.000000  -0.002566   0.000000
   22  O  3 ZZ   -0.001112   0.004565   0.000000  -0.025071   0.000000
   23  O  3 XY    0.000000   0.000000   0.000000   0.000000   0.000000
   24  O  3 XZ    0.000000   0.000000   0.000000   0.000000  -0.018183
   25  O  3 YZ    0.000000   0.000000  -0.026803   0.000000   0.000000

                      6          7          8          9         10
                    0.1834     0.2561     0.7892     0.8543     1.1590
                     A1         B2         B2         A1         A1  
    1  H  1  S   -0.059999   0.026151   0.944413   0.787492   0.534942
    2  H  1  S   -0.838001   1.444337  -0.686120  -0.547329   0.087634
    3  H  1  X    0.000000   0.000000   0.000000   0.000000   0.000000
    4  H  1  Y   -0.013338   0.020829  -0.073990  -0.296302   0.094052
    5  H  1  Z   -0.012615   0.017132  -0.152966  -0.059245   0.244320
    6  H  2  S   -0.059999  -0.026151  -0.944413   0.787492   0.534942
    7  H  2  S   -0.838001  -1.444337   0.686120  -0.547329   0.087634
    8  H  2  X    0.000000   0.000000   0.000000   0.000000   0.000000
    9  H  2  Y    0.013338   0.020829  -0.073990   0.296302  -0.094052
   10  H  2  Z   -0.012615  -0.017132   0.152966  -0.059245   0.244320
   11  O  3  S   -0.056603   0.000000   0.000000  -0.064686  -0.031112
   12  O  3  S    0.080634   0.000000   0.000000  -0.255403  -0.147617
   13  O  3  S    1.067944   0.000000   0.000000   0.317081  -0.565155
   14  O  3  X    0.000000   0.000000   0.000000   0.000000   0.000000
   15  O  3  Y    0.000000   0.283209   0.267777   0.000000   0.000000
   16  O  3  Z   -0.189067   0.000000   0.000000   0.329236  -0.749622
   17  O  3  X    0.000000   0.000000   0.000000   0.000000   0.000000
   18  O  3  Y    0.000000   0.671009   0.461475   0.000000   0.000000
   19  O  3  Z   -0.341190   0.000000   0.000000  -0.009699   1.264670
   20  O  3 XX   -0.041074   0.000000   0.000000  -0.092375  -0.048072
   21  O  3 YY   -0.026218   0.000000   0.000000   0.093208  -0.042749
   22  O  3 ZZ   -0.022401   0.000000   0.000000   0.001789  -0.063081
   23  O  3 XY    0.000000   0.000000   0.000000   0.000000   0.000000
   24  O  3 XZ    0.000000   0.000000   0.000000   0.000000   0.000000
   25  O  3 YZ    0.000000  -0.021238   0.111759   0.000000   0.000000

                     11         12         13         14         15
                    1.2000     1.2530     1.4236     1.4761     1.6746
                     B1         B2         A1         A2         B1  
    1  H  1  S    0.000000   0.379424   0.219596   0.000000   0.000000
    2  H  1  S    0.000000   0.825739  -0.274739   0.000000   0.000000
    3  H  1  X    0.007905   0.000000   0.000000   0.685602   0.767138
    4  H  1  Y    0.000000   0.302652   0.305653   0.000000   0.000000
    5  H  1  Z    0.000000   0.186704  -0.518884   0.000000   0.000000
    6  H  2  S    0.000000  -0.379424   0.219596   0.000000   0.000000
    7  H  2  S    0.000000  -0.825739  -0.274739   0.000000   0.000000
    8  H  2  X    0.007905   0.000000   0.000000  -0.685602   0.767138
    9  H  2  Y    0.000000   0.302652  -0.305653   0.000000   0.000000
   10  H  2  Z    0.000000  -0.186704  -0.518884   0.000000   0.000000
   11  O  3  S    0.000000   0.000000  -0.285967   0.000000   0.000000
   12  O  3  S    0.000000   0.000000  -0.635902   0.000000   0.000000
   13  O  3  S    0.000000   0.000000   1.065551   0.000000   0.000000
   14  O  3  X   -0.967741   0.000000   0.000000   0.000000  -0.020594
   15  O  3  Y    0.000000  -0.734020   0.000000   0.000000   0.000000
   16  O  3  Z    0.000000   0.000000  -0.086183   0.000000   0.000000
   17  O  3  X    1.025447   0.000000   0.000000   0.000000  -0.633399
   18  O  3  Y    0.000000   1.764489   0.000000   0.000000   0.000000
   19  O  3  Z    0.000000   0.000000   0.551579   0.000000   0.000000
   20  O  3 XX    0.000000   0.000000  -0.158472   0.000000   0.000000
   21  O  3 YY    0.000000   0.000000  -0.187391   0.000000   0.000000
   22  O  3 ZZ    0.000000   0.000000  -0.015767   0.000000   0.000000
   23  O  3 XY    0.000000   0.000000   0.000000  -0.131270   0.000000
   24  O  3 XZ    0.003569   0.000000   0.000000   0.000000  -0.160802
   25  O  3 YZ    0.000000  -0.044623   0.000000   0.000000   0.000000

                     16         17         18         19         20
                    1.7459     1.9347     2.4528     2.4673     3.2854
                     A1         B2         B2         A1         B1  
    1  H  1  S   -0.827965   0.387931   0.295819  -0.539978   0.000000
    2  H  1  S   -0.379156   0.091564   0.330005  -0.175764   0.000000
    3  H  1  X    0.000000   0.000000   0.000000   0.000000   0.398518
    4  H  1  Y   -0.331809  -0.472019   0.724450  -0.776875   0.000000
    5  H  1  Z    0.158353   0.693114   0.555251  -0.551706   0.000000
    6  H  2  S   -0.827965  -0.387931  -0.295819  -0.539978   0.000000
    7  H  2  S   -0.379156  -0.091564  -0.330005  -0.175764   0.000000
    8  H  2  X    0.000000   0.000000   0.000000   0.000000   0.398518
    9  H  2  Y    0.331809  -0.472019   0.724450   0.776875   0.000000
   10  H  2  Z    0.158353  -0.693114  -0.555251  -0.551706   0.000000
   11  O  3  S   -0.669350   0.000000   0.000000   0.199351   0.000000
   12  O  3  S   -1.306225   0.000000   0.000000   0.481757   0.000000
   13  O  3  S    3.202332   0.000000   0.000000   0.892897   0.000000
   14  O  3  X    0.000000   0.000000   0.000000   0.000000   0.011407
   15  O  3  Y    0.000000  -0.010343   0.839488   0.000000   0.000000
   16  O  3  Z    0.012868   0.000000   0.000000  -0.693700   0.000000
   17  O  3  X    0.000000   0.000000   0.000000   0.000000  -0.311822
   18  O  3  Y    0.000000   0.901854   0.152887   0.000000   0.000000
   19  O  3  Z   -1.102126   0.000000   0.000000  -0.227117   0.000000
   20  O  3 XX   -0.109027   0.000000   0.000000   0.337834   0.000000
   21  O  3 YY   -0.273607   0.000000   0.000000  -0.052102   0.000000
   22  O  3 ZZ   -0.369969   0.000000   0.000000   0.047245   0.000000
   23  O  3 XY    0.000000   0.000000   0.000000   0.000000   0.000000
   24  O  3 XZ    0.000000   0.000000   0.000000   0.000000   1.042831
   25  O  3 YZ    0.000000   0.029420   0.138737   0.000000   0.000000

                     21         22         23         24         25
                    3.3387     3.5100     3.8615     4.1473     5.9655
                     A2         A1         A1         B2         A1  
    1  H  1  S    0.000000  -0.308772  -1.225783  -1.087380   0.247184
    2  H  1  S    0.000000  -0.039779  -0.197211  -0.288647  -0.186362
    3  H  1  X    0.371634   0.000000   0.000000   0.000000   0.000000
    4  H  1  Y    0.000000  -0.354107  -0.613109  -0.606336   0.213625
    5  H  1  Z    0.000000   0.314271  -0.489548  -0.493642   0.181945
    6  H  2  S    0.000000  -0.308772  -1.225783   1.087380   0.247184
    7  H  2  S    0.000000  -0.039779  -0.197211   0.288647  -0.186362
    8  H  2  X   -0.371634   0.000000   0.000000   0.000000   0.000000
    9  H  2  Y    0.000000   0.354107   0.613109  -0.606336  -0.213625
   10  H  2  Z    0.000000   0.314271  -0.489548   0.493642   0.181945
   11  O  3  S    0.000000  -0.078998  -0.120036   0.000000   0.322743
   12  O  3  S    0.000000  -0.132389  -0.083334   0.000000   1.654432
   13  O  3  S    0.000000   0.576886   2.313184   0.000000   1.444407
   14  O  3  X    0.000000   0.000000   0.000000   0.000000   0.000000
   15  O  3  Y    0.000000   0.000000   0.000000  -0.469472   0.000000
   16  O  3  Z    0.000000  -0.020186  -0.399678   0.000000   0.184687
   17  O  3  X    0.000000   0.000000   0.000000   0.000000   0.000000
   18  O  3  Y    0.000000   0.000000   0.000000  -1.145046   0.000000
   19  O  3  Z    0.000000  -0.540764  -0.915552   0.000000   0.023222
   20  O  3 XX    0.000000  -0.408305  -1.131054   0.000000  -1.360044
   21  O  3 YY    0.000000  -0.706533   0.870018   0.000000  -1.593847
   22  O  3 ZZ    0.000000   1.070588   0.065432   0.000000  -1.483540
   23  O  3 XY    1.066308   0.000000   0.000000   0.000000   0.000000
   24  O  3 XZ    0.000000   0.000000   0.000000   0.000000   0.000000
   25  O  3 YZ    0.000000   0.000000   0.000000   1.325571   0.000000
 ...... END OF UHF CALCULATION ......
 CPU     0: STEP CPU TIME=     5.29 TOTAL CPU TIME=       14.3 (    0.2 MIN)
 TOTAL WALL CLOCK TIME=       69.3 SECONDS, CPU UTILIZATION IS  20.68%

     ----------------------------------------------------------------
     PROPERTY VALUES FOR THE UHF   SELF-CONSISTENT FIELD WAVEFUNCTION
     ----------------------------------------------------------------

          -----------------
          ENERGY COMPONENTS
          -----------------

         WAVEFUNCTION NORMALIZATION =       1.0000000000

                ONE ELECTRON ENERGY =    -123.1464214390
                TWO ELECTRON ENERGY =      37.9244185158
           NUCLEAR REPULSION ENERGY =       9.1948643542
                                      ------------------
                       TOTAL ENERGY =     -76.0271385689

 ELECTRON-ELECTRON POTENTIAL ENERGY =      37.9244185158
  NUCLEUS-ELECTRON POTENTIAL ENERGY =    -199.0932610970
   NUCLEUS-NUCLEUS POTENTIAL ENERGY =       9.1948643542
                                      ------------------
             TOTAL POTENTIAL ENERGY =    -151.9739782269
               TOTAL KINETIC ENERGY =      75.9468396580
                 VIRIAL RATIO (V/T) =       2.0010573042

  ...... PI ENERGY ANALYSIS ......

 ENERGY ANALYSIS:
            FOCK ENERGY=    -47.2975841991
          BARE H ENERGY=   -123.1464214390
     ELECTRONIC ENERGY =    -85.2220028190
         KINETIC ENERGY=     75.9468396580
          N-N REPULSION=      9.1948643542
           TOTAL ENERGY=    -76.0271384649
        SIGMA PART(1+2)=    -77.6300565032
               (K,V1,2)=     71.3886189591   -180.3381731572     31.3194976949
           PI PART(1+2)=     -7.5919463158
               (K,V1,2)=      4.5582206989    -18.7550879398      6.6049209250
  SIGMA SKELETON, ERROR=    -68.4351921490     -0.0000000000
             MIXED PART= 0.00000E+00 0.00000E+00 0.00000E+00 0.00000E+00
 ...... END OF PI ENERGY ANALYSIS ......

          ---------------------------------------
          MULLIKEN AND LOWDIN POPULATION ANALYSES
          ---------------------------------------

     ATOMIC MULLIKEN POPULATION IN EACH MOLECULAR ORBITAL
        ALPHA ORBITALS

                      1          2          3          4          5

                  1.000000   1.000000   1.000000   1.000000   1.000000

    1            -0.000054   0.130978   0.209291   0.073125   0.010996
    2            -0.000054   0.130978   0.209291   0.073125   0.010996
    3             1.000109   0.738045   0.581417   0.853750   0.978007

     ATOMIC MULLIKEN POPULATION IN EACH MOLECULAR ORBITAL
         BETA ORBITALS

                      1          2          3          4          5

                  1.000000   1.000000   1.000000   1.000000   1.000000

    1            -0.000054   0.130978   0.209291   0.073125   0.010996
    2            -0.000054   0.130978   0.209291   0.073125   0.010996
    3             1.000109   0.738045   0.581417   0.853750   0.978007

     ATOMIC SPIN POPULATION (ALPHA MINUS BETA)
       ATOM         MULL.POP.                    LOW.POP.
    1 H             0.000000                     0.000000
    2 H             0.000000                     0.000000
    3 O             0.000000                    -0.000000


          ********* ALL ELECTRONS ********

               ----- POPULATIONS IN EACH AO -----
                             MULLIKEN      LOWDIN
              1  H  1  S      0.69095     0.55153
              2  H  1  S      0.07151     0.16098
              3  H  1  X      0.02199     0.06338
              4  H  1  Y      0.03738     0.05736
              5  H  1  Z      0.02684     0.05671
              6  H  2  S      0.69095     0.55153
              7  H  2  S      0.07151     0.16098
              8  H  2  X      0.02199     0.06338
              9  H  2  Y      0.03738     0.05736
             10  H  2  Z      0.02684     0.05671
             11  O  3  S      2.00196     1.90128
             12  O  3  S      0.83068     0.59192
             13  O  3  S      0.81722     0.50024
             14  O  3  X      1.12605     1.08258
             15  O  3  Y      0.77298     0.70134
             16  O  3  Z      0.92353     0.87383
             17  O  3  X      0.82887     0.79043
             18  O  3  Y      0.38091     0.53141
             19  O  3  Z      0.60228     0.69070
             20  O  3 XX      0.00234     0.17446
             21  O  3 YY      0.00680     0.18575
             22  O  3 ZZ     -0.00102     0.17797
             23  O  3 XY      0.00000     0.00000
             24  O  3 XZ      0.00110     0.00024
             25  O  3 YZ      0.00894     0.01792

          ----- MULLIKEN ATOMIC OVERLAP POPULATIONS -----
          (OFF-DIAGONAL ELEMENTS NEED TO BE MULTIPLIED BY 2)

             1           2           3

    1    0.5169494
    2   -0.0323000   0.5169494
    3    0.3640228   0.3640228   7.5746098

          TOTAL MULLIKEN AND LOWDIN ATOMIC POPULATIONS
       ATOM         MULL.POP.    CHARGE          LOW.POP.     CHARGE
    1 H             0.848672    0.151328         0.889962    0.110038
    2 H             0.848672    0.151328         0.889962    0.110038
    3 O             8.302655   -0.302655         8.220076   -0.220076

          -------------------------------
          BOND ORDER AND VALENCE ANALYSIS     BOND ORDER THRESHOLD=0.050
          -------------------------------

                   BOND                       BOND                       BOND
  ATOM PAIR DIST  ORDER      ATOM PAIR DIST  ORDER      ATOM PAIR DIST  ORDER
    1   3  0.957  1.021        2   3  0.957  1.021

                       TOTAL       BONDED        FREE
      ATOM            VALENCE     VALENCE     VALENCE
    1 H                 1.030       1.030       0.000
    2 H                 1.030       1.030       0.000
    3 O                 2.042       2.042      -0.000

          -----------------------------------------
          ATOMIC SPIN DENSITY AT THE NUCLEUS (A.U.)
          -----------------------------------------
                            SPIN DENS    ALPHA DENS     BETA DENS
    1  H            1.0     0.0000000       0.18146       0.18146
    2  H            1.0     0.0000000       0.18146       0.18146
    3  O            8.0     0.0000000     148.49554     148.49554

          ---------------------
          ELECTROSTATIC MOMENTS
          ---------------------

 POINT   1           X           Y           Z (BOHR)    CHARGE
                -0.000000    0.000000   -0.123906       -0.00 (A.U.)
         DX          DY          DZ         /D/  (DEBYE)
    -0.000000    0.000000   -2.056521    2.056521
 ...... END OF PROPERTY EVALUATION ......
 CPU     0: STEP CPU TIME=     0.53 TOTAL CPU TIME=       14.9 (    0.2 MIN)
 TOTAL WALL CLOCK TIME=       71.8 SECONDS, CPU UTILIZATION IS  20.70%
                580000  WORDS OF DYNAMIC MEMORY USED
 EXECUTION OF GAMESS TERMINATED NORMALLY Mon Nov 16 18:35:23 2020
 DDI: 263624 bytes (0.3 MB / 0 MWords) used by master data server.

 ----------------------------------------
 CPU timing information for all processes
 ========================================
 0: 16.869 + 0.25 = 16.894
 1: 17.140 + 0.17 = 17.158
 2: 17.788 + 0.23 = 17.811
 3: 17.469 + 0.19 = 17.489
 4: 19.778 + 0.19 = 19.797
 5: 19.683 + 0.20 = 19.703
 6: 19.769 + 0.17 = 19.786
 7: 19.288 + 0.12 = 19.300
 8: 19.253 + 0.18 = 19.271
 9: 19.132 + 0.21 = 19.153
 10: 19.296 + 0.14 = 19.310
 11: 19.226 + 0.15 = 19.242
 12: 17.84 + 0.14 = 17.99
 13: 16.985 + 0.14 = 16.999
 14: 16.991 + 0.22 = 17.13
 15: 16.976 + 0.13 = 16.989
 16: 16.925 + 0.17 = 16.942
 17: 16.864 + 0.15 = 16.879
 18: 16.852 + 0.15 = 16.868
 19: 18.948 + 0.12 = 18.960
 20: 16.747 + 0.20 = 16.768
 21: 16.780 + 0.14 = 16.794
 22: 16.724 + 0.20 = 16.744
 23: 18.296 + 0.16 = 18.312
 24: 18.728 + 0.12 = 18.740
 25: 18.851 + 0.16 = 18.867
 26: 18.322 + 0.15 = 18.338
 27: 18.722 + 0.14 = 18.736
 28: 19.509 + 0.05 = 19.514
 29: 17.412 + 0.08 = 17.421
 30: 17.287 + 0.09 = 17.297
 31: 17.291 + 0.05 = 17.296
 32: 17.184 + 0.09 = 17.194
 33: 17.572 + 0.09 = 17.581
 34: 18.298 + 0.09 = 18.308
 35: 18.242 + 0.08 = 18.251
 36: 18.308 + 0.07 = 18.315
 37: 20.301 + 0.07 = 20.308
 38: 19.972 + 0.05 = 19.978
 39: 17.762 + 0.04 = 17.766
 40: 20.278 + 0.08 = 20.287
 41: 17.935 + 0.12 = 17.948
 42: 17.834 + 0.07 = 17.841
 43: 19.687 + 0.08 = 19.695
 44: 17.823 + 0.04 = 17.827
 45: 17.825 + 0.10 = 17.836
 46: 19.635 + 0.08 = 19.643
 47: 19.758 + 0.09 = 19.767
 48: 19.866 + 0.06 = 19.872
 49: 17.633 + 0.05 = 17.638
 50: 20.241 + 0.05 = 20.247
 51: 19.703 + 0.07 = 19.710
 52: 19.647 + 0.09 = 19.656
 53: 20.186 + 0.09 = 20.195
 54: 17.713 + 0.05 = 17.718
 55: 17.401 + 0.08 = 17.410
 ----------------------------------------
