[Molden Format]
[Atoms] (AU)
O    1    8         0.000000000000      -0.000000000000       0.123905843730
H    2    1         1.430463150599       0.000000000000      -0.983237827968
H    3    1        -1.430463150599      -0.000000000000      -0.983237827968
[GTO]
  1 0
 s    9  1.00
    61420.0000000000         0.0000900000
     9199.0000000000         0.0006980000
     2091.0000000000         0.0036640000
      590.9000000000         0.0152180000
      192.3000000000         0.0524230000
       69.3200000000         0.1459210000
       26.9700000000         0.3052580000
       11.1000000000         0.3985080000
        4.6820000000         0.2169800000
 s    9  1.00
    61420.0000000000        -0.0000200000
     9199.0000000000        -0.0001590000
     2091.0000000000        -0.0008290000
      590.9000000000        -0.0035080000
      192.3000000000        -0.0121560000
       69.3200000000        -0.0362610000
       26.9700000000        -0.0829920000
       11.1000000000        -0.1520900000
        4.6820000000        -0.1153310000
 s    1  1.00
        1.4280000000         1.0000000000
 s    1  1.00
        0.5547000000         1.0000000000
 s    1  1.00
        0.2067000000         1.0000000000
 p    3  1.00
       63.4200000000         0.0060440000
       14.6600000000         0.0417990000
        4.4590000000         0.1611430000
 p    1  1.00
        1.5310000000         1.0000000000
 p    1  1.00
        0.5302000000         1.0000000000
 p    1  1.00
        0.1750000000         1.0000000000
 d    1  1.00
        3.7750000000         1.0000000000
 d    1  1.00
        1.3000000000         1.0000000000
 d    1  1.00
        0.4440000000         1.0000000000
 f    1  1.00
        2.6660000000         1.0000000000
 f    1  1.00
        0.8590000000         1.0000000000
 g    1  1.00
        1.8460000000         1.0000000000

  2 0
 s    3  1.00
       82.6400000000         0.0020060000
       12.4100000000         0.0153430000
        2.8240000000         0.0755790000
 s    1  1.00
        0.7977000000         1.0000000000
 s    1  1.00
        0.2581000000         1.0000000000
 s    1  1.00
        0.0898900000         1.0000000000
 p    1  1.00
        2.2920000000         1.0000000000
 p    1  1.00
        0.8380000000         1.0000000000
 p    1  1.00
        0.2920000000         1.0000000000
 d    1  1.00
        2.0620000000         1.0000000000
 d    1  1.00
        0.6620000000         1.0000000000
 f    1  1.00
        1.3970000000         1.0000000000

  3 0
 s    3  1.00
       82.6400000000         0.0020060000
       12.4100000000         0.0153430000
        2.8240000000         0.0755790000
 s    1  1.00
        0.7977000000         1.0000000000
 s    1  1.00
        0.2581000000         1.0000000000
 s    1  1.00
        0.0898900000         1.0000000000
 p    1  1.00
        2.2920000000         1.0000000000
 p    1  1.00
        0.8380000000         1.0000000000
 p    1  1.00
        0.2920000000         1.0000000000
 d    1  1.00
        2.0620000000         1.0000000000
 d    1  1.00
        0.6620000000         1.0000000000
 f    1  1.00
        1.3970000000         1.0000000000

[5D]
[9G]

[MO]
 Sym= A1
 Ene= -2.05597817860829046e+01
 Spin= Alpha
 Occup=  2.00000000000000000e+00
  1  9.92313639458241692e-01
  2  8.63449329825916653e-04
  3  1.90657692276891347e-02
  4 -4.94727547479734998e-03
  5  3.87463677750316318e-04
  6  0.00000000000000000e+00
  7  0.00000000000000000e+00
  8 -1.62875225723200373e-03
  9  0.00000000000000000e+00
 10  0.00000000000000000e+00
 11  3.11654088410582208e-04
 12  0.00000000000000000e+00
 13  0.00000000000000000e+00
 14  9.60935557295886089e-04
 15  0.00000000000000000e+00
 16  0.00000000000000000e+00
 17  5.52451502476229204e-05
 18  2.82409278699923680e-05
 19  0.00000000000000000e+00
 20  0.00000000000000000e+00
 21  1.20606170081612521e-04
 22  0.00000000000000000e+00
 23 -8.26527522052616004e-05
 24  0.00000000000000000e+00
 25  0.00000000000000000e+00
 26 -3.64606021943659684e-04
 27  0.00000000000000000e+00
 28  1.22335407583408674e-04
 29  0.00000000000000000e+00
 30  0.00000000000000000e+00
 31 -5.01655829198856002e-04
 32  0.00000000000000000e+00
 33  4.80855047022233915e-05
 34  0.00000000000000000e+00
 35  0.00000000000000000e+00
 36 -7.64785489061528935e-05
 37  0.00000000000000000e+00
 38  0.00000000000000000e+00
 39  0.00000000000000000e+00
 40 -1.63935101691780520e-04
 41  0.00000000000000000e+00
 42  0.00000000000000000e+00
 43  2.84097042772087224e-04
 44  0.00000000000000000e+00
 45  0.00000000000000000e+00
 46  0.00000000000000000e+00
 47  1.64450601569583189e-05
 48  0.00000000000000000e+00
 49  0.00000000000000000e+00
 50 -2.08207613799805884e-05
 51  0.00000000000000000e+00
 52  0.00000000000000000e+00
 53  0.00000000000000000e+00
 54 -1.20353774659764586e-05
 55  0.00000000000000000e+00
 56 -2.45771509511646560e-05
 57  1.03953140300726168e-03
 58  7.33134919679951313e-04
 59 -1.41150777276581656e-04
 60  2.27467815404449693e-06
 61  0.00000000000000000e+00
 62 -9.55042020521637837e-06
 63 -5.35888220515357049e-04
 64  0.00000000000000000e+00
 65  4.88525589111067290e-04
 66 -1.75754222419354498e-04
 67  0.00000000000000000e+00
 68  2.40825296434877634e-04
 69 -7.75933994347512294e-06
 70 -4.35768080640421294e-05
 71  0.00000000000000000e+00
 72  2.65737192166084776e-05
 73  0.00000000000000000e+00
 74  5.37794865805732658e-05
 75 -1.49228777110752215e-04
 76  0.00000000000000000e+00
 77  7.39321790479387301e-05
 78  0.00000000000000000e+00
 79 -1.76972947271312198e-05
 80  1.50525544685987126e-05
 81  0.00000000000000000e+00
 82 -3.82247611118802320e-06
 83  0.00000000000000000e+00
 84 -6.53224943027842127e-06
 85  0.00000000000000000e+00
 86 -2.45771509511646560e-05
 87  1.03953140300726168e-03
 88  7.33134919679951313e-04
 89 -1.41150777276581656e-04
 90 -2.27467815404449693e-06
 91  0.00000000000000000e+00
 92 -9.55042020521637837e-06
 93  5.35888220515357049e-04
 94  0.00000000000000000e+00
 95  4.88525589111067290e-04
 96  1.75754222419354498e-04
 97  0.00000000000000000e+00
 98  2.40825296434877634e-04
 99 -7.75933994347512294e-06
100  4.35768080640421294e-05
101  0.00000000000000000e+00
102  2.65737192166084776e-05
103  0.00000000000000000e+00
104  5.37794865805732658e-05
105  1.49228777110752215e-04
106  0.00000000000000000e+00
107  7.39321790479387301e-05
108  0.00000000000000000e+00
109 -1.76972947271312198e-05
110 -1.50525544685987126e-05
111  0.00000000000000000e+00
112 -3.82247611118802320e-06
113  0.00000000000000000e+00
114  6.53224943027842127e-06
115  0.00000000000000000e+00
 Sym= A1
 Ene= -1.34951055467962844e+00
 Spin= Alpha
 Occup=  2.00000000000000000e+00
  1  3.72260542240314624e-03
  2 -3.14459977890504838e-01
  3 -2.46768926612174117e-01
  4 -4.94179845027907350e-01
  5 -2.12002239587630731e-01
  6  0.00000000000000000e+00
  7  0.00000000000000000e+00
  8  2.16549942076494223e-02
  9  0.00000000000000000e+00
 10  0.00000000000000000e+00
 11  4.32791381987226442e-02
 12  0.00000000000000000e+00
 13  0.00000000000000000e+00
 14  5.29295976294560863e-02
 15  0.00000000000000000e+00
 16  0.00000000000000000e+00
 17  8.28202740281222191e-03
 18 -3.11543383188610788e-04
 19  0.00000000000000000e+00
 20  0.00000000000000000e+00
 21 -9.15841913312363701e-04
 22  0.00000000000000000e+00
 23 -1.60610462882101361e-03
 24  0.00000000000000000e+00
 25  0.00000000000000000e+00
 26 -6.19898283875672858e-03
 27  0.00000000000000000e+00
 28 -2.59666278543733628e-03
 29  0.00000000000000000e+00
 30  0.00000000000000000e+00
 31 -4.06425645155002440e-03
 32  0.00000000000000000e+00
 33 -5.14831311404608471e-04
 34  0.00000000000000000e+00
 35  0.00000000000000000e+00
 36  1.20384634962433551e-03
 37  0.00000000000000000e+00
 38  0.00000000000000000e+00
 39  0.00000000000000000e+00
 40 -5.17925698362636409e-04
 41  0.00000000000000000e+00
 42  0.00000000000000000e+00
 43  2.31898160557521575e-03
 44  0.00000000000000000e+00
 45  0.00000000000000000e+00
 46  0.00000000000000000e+00
 47  1.49806244002580126e-04
 48  0.00000000000000000e+00
 49  0.00000000000000000e+00
 50 -2.94194720984448260e-04
 51  0.00000000000000000e+00
 52  0.00000000000000000e+00
 53  0.00000000000000000e+00
 54 -1.05482522498432911e-04
 55  0.00000000000000000e+00
 56 -3.42450419144120152e-02
 57 -8.27522225840437303e-02
 58 -4.83982537304318630e-02
 59 -2.44831881913981251e-03
 60  5.54057957006853612e-03
 61  0.00000000000000000e+00
 62 -3.74568610784706182e-03
 63  9.78223683208938322e-03
 64  0.00000000000000000e+00
 65 -6.96561483854765944e-03
 66  5.53768917682903247e-03
 67  0.00000000000000000e+00
 68 -2.76595491005881969e-03
 69  4.24739456241674164e-06
 70  1.95672052216153657e-03
 71  0.00000000000000000e+00
 72 -1.46760244127766689e-03
 73  0.00000000000000000e+00
 74 -4.32054154535778685e-05
 75  1.16865256539328108e-03
 76  0.00000000000000000e+00
 77 -8.47389438992858599e-04
 78  0.00000000000000000e+00
 79  2.43571719491116767e-04
 80  2.03298016300657144e-04
 81  0.00000000000000000e+00
 82 -4.58238161491748657e-04
 83  0.00000000000000000e+00
 84  3.62357716132245139e-04
 85  0.00000000000000000e+00
 86 -3.42450419144120152e-02
 87 -8.27522225840437303e-02
 88 -4.83982537304318630e-02
 89 -2.44831881913981251e-03
 90 -5.54057957006853612e-03
 91  0.00000000000000000e+00
 92 -3.74568610784706182e-03
 93 -9.78223683208938322e-03
 94  0.00000000000000000e+00
 95 -6.96561483854765944e-03
 96 -5.53768917682903247e-03
 97  0.00000000000000000e+00
 98 -2.76595491005881969e-03
 99  4.24739456241674164e-06
100 -1.95672052216153657e-03
101  0.00000000000000000e+00
102 -1.46760244127766689e-03
103  0.00000000000000000e+00
104 -4.32054154535778685e-05
105 -1.16865256539328108e-03
106  0.00000000000000000e+00
107 -8.47389438992858599e-04
108  0.00000000000000000e+00
109  2.43571719491116767e-04
110 -2.03298016300657144e-04
111  0.00000000000000000e+00
112 -4.58238161491748657e-04
113  0.00000000000000000e+00
114 -3.62357716132245139e-04
115  0.00000000000000000e+00
 Sym= B1
 Ene= -7.14401665355240745e-01
 Spin= Alpha
 Occup=  2.00000000000000000e+00
  1  0.00000000000000000e+00
  2  0.00000000000000000e+00
  3  0.00000000000000000e+00
  4  0.00000000000000000e+00
  5  0.00000000000000000e+00
  6  1.40941559931772986e-01
  7  0.00000000000000000e+00
  8  0.00000000000000000e+00
  9  2.60123377168458125e-01
 10  0.00000000000000000e+00
 11  0.00000000000000000e+00
 12  3.03396315966358798e-01
 13  0.00000000000000000e+00
 14  0.00000000000000000e+00
 15  1.10890718304003183e-01
 16  0.00000000000000000e+00
 17  0.00000000000000000e+00
 18  0.00000000000000000e+00
 19 -5.01497924453465915e-03
 20  0.00000000000000000e+00
 21  0.00000000000000000e+00
 22  0.00000000000000000e+00
 23  0.00000000000000000e+00
 24 -1.83034841117537539e-02
 25  0.00000000000000000e+00
 26  0.00000000000000000e+00
 27  0.00000000000000000e+00
 28  0.00000000000000000e+00
 29 -1.91445670692126715e-02
 30  0.00000000000000000e+00
 31  0.00000000000000000e+00
 32  0.00000000000000000e+00
 33  0.00000000000000000e+00
 34  6.63497384374300055e-04
 35  0.00000000000000000e+00
 36  0.00000000000000000e+00
 37  0.00000000000000000e+00
 38  1.52891330025023355e-03
 39  0.00000000000000000e+00
 40  0.00000000000000000e+00
 41  4.51565223112257962e-04
 42  0.00000000000000000e+00
 43  0.00000000000000000e+00
 44  0.00000000000000000e+00
 45  3.22768439945487866e-03
 46  0.00000000000000000e+00
 47  0.00000000000000000e+00
 48  2.78394830200907482e-04
 49  0.00000000000000000e+00
 50  0.00000000000000000e+00
 51  0.00000000000000000e+00
 52 -5.70427143666909185e-04
 53  0.00000000000000000e+00
 54  0.00000000000000000e+00
 55  0.00000000000000000e+00
 56  5.37245752156575995e-02
 57  1.41465084551370107e-01
 58  1.83115610153165714e-01
 59  3.76632024234772808e-02
 60 -4.34891630849060674e-03
 61  0.00000000000000000e+00
 62  5.43390602902416031e-03
 63 -9.41008556473769617e-03
 64  0.00000000000000000e+00
 65  1.34476993560271926e-02
 66 -1.36261937386588754e-02
 67  0.00000000000000000e+00
 68  1.66836855645688398e-02
 69  9.08213574865845519e-04
 70 -2.39196280586344810e-03
 71  0.00000000000000000e+00
 72  7.61834006491974029e-04
 73  0.00000000000000000e+00
 74  1.58907180757778140e-03
 75 -4.07077803598401150e-03
 76  0.00000000000000000e+00
 77  2.28163959345523875e-03
 78  0.00000000000000000e+00
 79 -1.24551212020799064e-04
 80 -7.88787852634506939e-04
 81  0.00000000000000000e+00
 82  6.35576936002987575e-04
 83  0.00000000000000000e+00
 84 -1.21962994645838344e-04
 85  0.00000000000000000e+00
 86 -5.37245752156575995e-02
 87 -1.41465084551370107e-01
 88 -1.83115610153165714e-01
 89 -3.76632024234772808e-02
 90 -4.34891630849060674e-03
 91  0.00000000000000000e+00
 92 -5.43390602902416031e-03
 93 -9.41008556473769617e-03
 94  0.00000000000000000e+00
 95 -1.34476993560271926e-02
 96 -1.36261937386588754e-02
 97  0.00000000000000000e+00
 98 -1.66836855645688398e-02
 99 -9.08213574865845519e-04
100 -2.39196280586344810e-03
101  0.00000000000000000e+00
102 -7.61834006491974029e-04
103  0.00000000000000000e+00
104 -1.58907180757778140e-03
105 -4.07077803598401150e-03
106  0.00000000000000000e+00
107 -2.28163959345523875e-03
108  0.00000000000000000e+00
109  1.24551212020799064e-04
110 -7.88787852634506939e-04
111  0.00000000000000000e+00
112 -6.35576936002987575e-04
113  0.00000000000000000e+00
114 -1.21962994645838344e-04
115  0.00000000000000000e+00
 Sym= A1
 Ene= -5.81942448653453570e-01
 Spin= Alpha
 Occup=  2.00000000000000000e+00
  1  2.65742400085392091e-03
  2  1.09143721281028949e-01
  3  9.35711346006462552e-02
  4  1.82378842213397535e-01
  5  1.96020426242845380e-01
  6  0.00000000000000000e+00
  7  0.00000000000000000e+00
  8  1.55961731570920720e-01
  9  0.00000000000000000e+00
 10  0.00000000000000000e+00
 11  2.86446377613049807e-01
 12  0.00000000000000000e+00
 13  0.00000000000000000e+00
 14  3.54723374297622407e-01
 15  0.00000000000000000e+00
 16  0.00000000000000000e+00
 17  2.18858542841298215e-01
 18 -2.20810506201074390e-03
 19  0.00000000000000000e+00
 20  0.00000000000000000e+00
 21 -1.50620001937933263e-03
 22  0.00000000000000000e+00
 23 -8.03815350260821820e-03
 24  0.00000000000000000e+00
 25  0.00000000000000000e+00
 26 -4.47743632593356963e-03
 27  0.00000000000000000e+00
 28 -1.60588142940189110e-02
 29  0.00000000000000000e+00
 30  0.00000000000000000e+00
 31 -8.66165528414452289e-03
 32  0.00000000000000000e+00
 33 -1.89877650167062520e-04
 34  0.00000000000000000e+00
 35  0.00000000000000000e+00
 36  1.53654307716831083e-03
 37  0.00000000000000000e+00
 38  0.00000000000000000e+00
 39  0.00000000000000000e+00
 40  4.59894391460739338e-04
 41  0.00000000000000000e+00
 42  0.00000000000000000e+00
 43  3.42726975207930263e-03
 44  0.00000000000000000e+00
 45  0.00000000000000000e+00
 46  0.00000000000000000e+00
 47  1.94926179792177508e-04
 48  0.00000000000000000e+00
 49  0.00000000000000000e+00
 50 -5.00461840106223741e-04
 51  0.00000000000000000e+00
 52  0.00000000000000000e+00
 53  0.00000000000000000e+00
 54 -1.14479557533596289e-04
 55  0.00000000000000000e+00
 56 -3.23851862704718427e-02
 57 -8.56864210533223730e-02
 58 -9.64574539035668865e-02
 59 -1.30800512013809732e-02
 60  4.69097853309642567e-03
 61  0.00000000000000000e+00
 62  3.79814399860923255e-04
 63  8.97791552821451157e-03
 64  0.00000000000000000e+00
 65  3.38503899807200389e-03
 66  7.82808045978894418e-03
 67  0.00000000000000000e+00
 68  1.82406738250117696e-02
 69  1.21403276928170548e-03
 70  7.48747386001482858e-04
 71  0.00000000000000000e+00
 72 -1.42510055382344793e-03
 73  0.00000000000000000e+00
 74  2.65354042120279207e-03
 75 -2.11454497377164350e-03
 76  0.00000000000000000e+00
 77 -2.05266440654942135e-03
 78  0.00000000000000000e+00
 79  4.45100575485222604e-04
 80 -8.21862664026754182e-04
 81  0.00000000000000000e+00
 82 -5.02859837632218555e-05
 83  0.00000000000000000e+00
 84  4.84859199423060070e-04
 85  0.00000000000000000e+00
 86 -3.23851862704718427e-02
 87 -8.56864210533223730e-02
 88 -9.64574539035668865e-02
 89 -1.30800512013809732e-02
 90 -4.69097853309642567e-03
 91  0.00000000000000000e+00
 92  3.79814399860923255e-04
 93 -8.97791552821451157e-03
 94  0.00000000000000000e+00
 95  3.38503899807200389e-03
 96 -7.82808045978894418e-03
 97  0.00000000000000000e+00
 98  1.82406738250117696e-02
 99  1.21403276928170548e-03
100 -7.48747386001482858e-04
101  0.00000000000000000e+00
102 -1.42510055382344793e-03
103  0.00000000000000000e+00
104  2.65354042120279207e-03
105  2.11454497377164350e-03
106  0.00000000000000000e+00
107 -2.05266440654942135e-03
108  0.00000000000000000e+00
109  4.45100575485222604e-04
110  8.21862664026754182e-04
111  0.00000000000000000e+00
112 -5.02859837632218555e-05
113  0.00000000000000000e+00
114 -4.84859199423060070e-04
115  0.00000000000000000e+00
 Sym= B2
 Ene= -5.08143529081378720e-01
 Spin= Alpha
 Occup=  2.00000000000000000e+00
  1  0.00000000000000000e+00
  2  0.00000000000000000e+00
  3  0.00000000000000000e+00
  4  0.00000000000000000e+00
  5  0.00000000000000000e+00
  6  0.00000000000000000e+00
  7  1.77691177902364383e-01
  8  0.00000000000000000e+00
  9  0.00000000000000000e+00
 10  3.26372983474237099e-01
 11  0.00000000000000000e+00
 12  0.00000000000000000e+00
 13  4.07030053948931880e-01
 14  0.00000000000000000e+00
 15  0.00000000000000000e+00
 16  2.88046712662776427e-01
 17  0.00000000000000000e+00
 18  0.00000000000000000e+00
 19  0.00000000000000000e+00
 20 -2.11770790800347268e-03
 21  0.00000000000000000e+00
 22  0.00000000000000000e+00
 23  0.00000000000000000e+00
 24  0.00000000000000000e+00
 25 -7.61176951092831702e-03
 26  0.00000000000000000e+00
 27  0.00000000000000000e+00
 28  0.00000000000000000e+00
 29  0.00000000000000000e+00
 30 -1.56830418127720563e-02
 31  0.00000000000000000e+00
 32  0.00000000000000000e+00
 33  0.00000000000000000e+00
 34  0.00000000000000000e+00
 35  4.28594043810740053e-04
 36  0.00000000000000000e+00
 37  0.00000000000000000e+00
 38  0.00000000000000000e+00
 39  1.16338878881658996e-03
 40  0.00000000000000000e+00
 41  0.00000000000000000e+00
 42  1.53190525091065040e-03
 43  0.00000000000000000e+00
 44  0.00000000000000000e+00
 45  0.00000000000000000e+00
 46  3.77965876107635469e-03
 47  0.00000000000000000e+00
 48  0.00000000000000000e+00
 49 -4.07492121270916683e-05
 50  0.00000000000000000e+00
 51  0.00000000000000000e+00
 52  0.00000000000000000e+00
 53 -3.79621192749707379e-04
 54  0.00000000000000000e+00
 55  0.00000000000000000e+00
 56  0.00000000000000000e+00
 57  0.00000000000000000e+00
 58  0.00000000000000000e+00
 59  0.00000000000000000e+00
 60  0.00000000000000000e+00
 61  4.51049330684653426e-03
 62  0.00000000000000000e+00
 63  0.00000000000000000e+00
 64  1.20083180910128869e-02
 65  0.00000000000000000e+00
 66  0.00000000000000000e+00
 67  2.84059381608207026e-02
 68  0.00000000000000000e+00
 69  0.00000000000000000e+00
 70  0.00000000000000000e+00
 71  1.30806199099603123e-03
 72  0.00000000000000000e+00
 73 -1.64274530031664518e-03
 74  0.00000000000000000e+00
 75  0.00000000000000000e+00
 76  2.93650738537480941e-03
 77  0.00000000000000000e+00
 78 -4.39800669602372421e-03
 79  0.00000000000000000e+00
 80  0.00000000000000000e+00
 81  3.45462987800810217e-04
 82  0.00000000000000000e+00
 83 -1.08052166779897029e-03
 84  0.00000000000000000e+00
 85  9.13483451333496057e-04
 86  0.00000000000000000e+00
 87  0.00000000000000000e+00
 88  0.00000000000000000e+00
 89  0.00000000000000000e+00
 90  0.00000000000000000e+00
 91  4.51049330684653426e-03
 92  0.00000000000000000e+00
 93  0.00000000000000000e+00
 94  1.20083180910128869e-02
 95  0.00000000000000000e+00
 96  0.00000000000000000e+00
 97  2.84059381608207026e-02
 98  0.00000000000000000e+00
 99  0.00000000000000000e+00
100  0.00000000000000000e+00
101  1.30806199099603123e-03
102  0.00000000000000000e+00
103  1.64274530031664518e-03
104  0.00000000000000000e+00
105  0.00000000000000000e+00
106  2.93650738537480941e-03
107  0.00000000000000000e+00
108  4.39800669602372421e-03
109  0.00000000000000000e+00
110  0.00000000000000000e+00
111  3.45462987800810217e-04
112  0.00000000000000000e+00
113  1.08052166779897029e-03
114  0.00000000000000000e+00
115  9.13483451333496057e-04
 Sym= A1
 Ene=  1.17077611553646974e-01
 Spin= Alpha
 Occup=  0.00000000000000000e+00
  1  9.77181830682943842e-03
  2  9.89329960972766403e-02
  3  1.07780767098043559e-01
  4 -6.21034963454498018e-02
  5  1.90012613274828857e+00
  6  0.00000000000000000e+00
  7  0.00000000000000000e+00
  8 -4.02417586301824087e-02
  9  0.00000000000000000e+00
 10  0.00000000000000000e+00
 11 -4.27362105537771875e-02
 12  0.00000000000000000e+00
 13  0.00000000000000000e+00
 14 -1.99523750320533627e-01
 15  0.00000000000000000e+00
 16  0.00000000000000000e+00
 17 -4.49647942618734475e-01
 18  5.13966308333171744e-04
 19  0.00000000000000000e+00
 20  0.00000000000000000e+00
 21 -2.71091137217177342e-04
 22  0.00000000000000000e+00
 23  8.48206439946697132e-04
 24  0.00000000000000000e+00
 25  0.00000000000000000e+00
 26 -5.92740888681069465e-03
 27  0.00000000000000000e+00
 28 -1.01136083852001509e-02
 29  0.00000000000000000e+00
 30  0.00000000000000000e+00
 31  8.83841788066508233e-02
 32  0.00000000000000000e+00
 33 -2.37070734557157407e-03
 34  0.00000000000000000e+00
 35  0.00000000000000000e+00
 36  3.50083106774693288e-03
 37  0.00000000000000000e+00
 38  0.00000000000000000e+00
 39  0.00000000000000000e+00
 40  1.58462871107974169e-02
 41  0.00000000000000000e+00
 42  0.00000000000000000e+00
 43 -2.42204847798268216e-02
 44  0.00000000000000000e+00
 45  0.00000000000000000e+00
 46  0.00000000000000000e+00
 47 -1.81099677730134747e-03
 48  0.00000000000000000e+00
 49  0.00000000000000000e+00
 50  2.00160141117402884e-03
 51  0.00000000000000000e+00
 52  0.00000000000000000e+00
 53  0.00000000000000000e+00
 54  1.53800105453173372e-03
 55  0.00000000000000000e+00
 56 -1.08206042034578821e-04
 57 -9.39651140702508075e-02
 58 -3.12314826526814027e-01
 59 -9.81681890218085162e-01
 60  3.40616593014739797e-03
 61  0.00000000000000000e+00
 62 -1.89302286415040364e-03
 63 -1.71030463386245210e-02
 64  0.00000000000000000e+00
 65 -1.95501665458255565e-03
 66  1.55224320742525179e-01
 67  0.00000000000000000e+00
 68 -1.33547556246946475e-01
 69  6.61418460000222228e-05
 70 -9.92485153849993491e-04
 71  0.00000000000000000e+00
 72  9.77656979622985737e-04
 73  0.00000000000000000e+00
 74 -9.22119025037829859e-03
 75  4.12142561001963004e-03
 76  0.00000000000000000e+00
 77  3.93198345220792216e-03
 78  0.00000000000000000e+00
 79 -1.55088946329411245e-03
 80 -1.77384726332341890e-03
 81  0.00000000000000000e+00
 82  4.38878954882511701e-03
 83  0.00000000000000000e+00
 84 -2.39069160276966742e-03
 85  0.00000000000000000e+00
 86 -1.08206042034578821e-04
 87 -9.39651140702508075e-02
 88 -3.12314826526814027e-01
 89 -9.81681890218085162e-01
 90 -3.40616593014739797e-03
 91  0.00000000000000000e+00
 92 -1.89302286415040364e-03
 93  1.71030463386245210e-02
 94  0.00000000000000000e+00
 95 -1.95501665458255565e-03
 96 -1.55224320742525179e-01
 97  0.00000000000000000e+00
 98 -1.33547556246946475e-01
 99  6.61418460000222228e-05
100  9.92485153849993491e-04
101  0.00000000000000000e+00
102  9.77656979622985737e-04
103  0.00000000000000000e+00
104 -9.22119025037829859e-03
105 -4.12142561001963004e-03
106  0.00000000000000000e+00
107  3.93198345220792216e-03
108  0.00000000000000000e+00
109 -1.55088946329411245e-03
110  1.77384726332341890e-03
111  0.00000000000000000e+00
112  4.38878954882511701e-03
113  0.00000000000000000e+00
114  2.39069160276966742e-03
115  0.00000000000000000e+00
 Sym= B1
 Ene=  1.71018020274683658e-01
 Spin= Alpha
 Occup=  0.00000000000000000e+00
  1  0.00000000000000000e+00
  2  0.00000000000000000e+00
  3  0.00000000000000000e+00
  4  0.00000000000000000e+00
  5  0.00000000000000000e+00
  6  5.76935103824239501e-02
  7  0.00000000000000000e+00
  8  0.00000000000000000e+00
  9  9.40629209937511035e-02
 10  0.00000000000000000e+00
 11  0.00000000000000000e+00
 12  2.00373223584856486e-01
 13  0.00000000000000000e+00
 14  0.00000000000000000e+00
 15  1.05683927340938943e+00
 16  0.00000000000000000e+00
 17  0.00000000000000000e+00
 18  0.00000000000000000e+00
 19 -2.36211140464199793e-03
 20  0.00000000000000000e+00
 21  0.00000000000000000e+00
 22  0.00000000000000000e+00
 23  0.00000000000000000e+00
 24  1.43124243053207815e-02
 25  0.00000000000000000e+00
 26  0.00000000000000000e+00
 27  0.00000000000000000e+00
 28  0.00000000000000000e+00
 29 -1.19122486513195278e-01
 30  0.00000000000000000e+00
 31  0.00000000000000000e+00
 32  0.00000000000000000e+00
 33  0.00000000000000000e+00
 34 -1.69387713937871809e-03
 35  0.00000000000000000e+00
 36  0.00000000000000000e+00
 37  0.00000000000000000e+00
 38 -6.49616798718649700e-04
 39  0.00000000000000000e+00
 40  0.00000000000000000e+00
 41  1.55677255024533837e-02
 42  0.00000000000000000e+00
 43  0.00000000000000000e+00
 44  0.00000000000000000e+00
 45  1.90408657323782194e-03
 46  0.00000000000000000e+00
 47  0.00000000000000000e+00
 48 -1.80169256961900878e-03
 49  0.00000000000000000e+00
 50  0.00000000000000000e+00
 51  0.00000000000000000e+00
 52 -9.77206756737426623e-04
 53  0.00000000000000000e+00
 54  0.00000000000000000e+00
 55  0.00000000000000000e+00
 56  4.33951747847813318e-03
 57 -5.94867163586173531e-02
 58 -3.11332486012749765e-01
 59 -2.08644399054760887e+00
 60  3.51353800089792417e-03
 61  0.00000000000000000e+00
 62 -3.45245998267108790e-03
 63 -2.02163862999897616e-02
 64  0.00000000000000000e+00
 65  3.08667320897194897e-02
 66  2.45411752799116450e-01
 67  0.00000000000000000e+00
 68 -1.87442524801783972e-01
 69  1.65222911564782255e-03
 70 -3.23403132750293152e-03
 71  0.00000000000000000e+00
 72  2.37305064898625951e-03
 73  0.00000000000000000e+00
 74  9.42867663559524005e-03
 75  8.83621053722306177e-03
 76  0.00000000000000000e+00
 77 -1.77125808409142327e-02
 78  0.00000000000000000e+00
 79  7.41754443526968584e-04
 80 -3.55942050478174352e-03
 81  0.00000000000000000e+00
 82  1.78278405471459043e-03
 83  0.00000000000000000e+00
 84 -3.13433993741079502e-04
 85  0.00000000000000000e+00
 86 -4.33951747847813318e-03
 87  5.94867163586173531e-02
 88  3.11332486012749765e-01
 89  2.08644399054760887e+00
 90  3.51353800089792417e-03
 91  0.00000000000000000e+00
 92  3.45245998267108790e-03
 93 -2.02163862999897616e-02
 94  0.00000000000000000e+00
 95 -3.08667320897194897e-02
 96  2.45411752799116450e-01
 97  0.00000000000000000e+00
 98  1.87442524801783972e-01
 99 -1.65222911564782255e-03
100 -3.23403132750293152e-03
101  0.00000000000000000e+00
102 -2.37305064898625951e-03
103  0.00000000000000000e+00
104 -9.42867663559524005e-03
105  8.83621053722306177e-03
106  0.00000000000000000e+00
107  1.77125808409142327e-02
108  0.00000000000000000e+00
109 -7.41754443526968584e-04
110 -3.55942050478174352e-03
111  0.00000000000000000e+00
112 -1.78278405471459043e-03
113  0.00000000000000000e+00
114 -3.13433993741079502e-04
115  0.00000000000000000e+00
 Sym= B1
 Ene=  4.49466838040251115e-01
 Spin= Alpha
 Occup=  0.00000000000000000e+00
  1  0.00000000000000000e+00
  2  0.00000000000000000e+00
  3  0.00000000000000000e+00
  4  0.00000000000000000e+00
  5  0.00000000000000000e+00
  6  4.33884219777421962e-02
  7  0.00000000000000000e+00
  8  0.00000000000000000e+00
  9  3.86794152151184595e-02
 10  0.00000000000000000e+00
 11  0.00000000000000000e+00
 12  1.04635608863673113e+00
 13  0.00000000000000000e+00
 14  0.00000000000000000e+00
 15  2.32881685725079191e+00
 16  0.00000000000000000e+00
 17  0.00000000000000000e+00
 18  0.00000000000000000e+00
 19  1.50002017942982378e-02
 20  0.00000000000000000e+00
 21  0.00000000000000000e+00
 22  0.00000000000000000e+00
 23  0.00000000000000000e+00
 24 -5.41646908869808444e-02
 25  0.00000000000000000e+00
 26  0.00000000000000000e+00
 27  0.00000000000000000e+00
 28  0.00000000000000000e+00
 29 -6.34000585338090561e-01
 30  0.00000000000000000e+00
 31  0.00000000000000000e+00
 32  0.00000000000000000e+00
 33  0.00000000000000000e+00
 34 -3.77696791259624553e-03
 35  0.00000000000000000e+00
 36  0.00000000000000000e+00
 37  0.00000000000000000e+00
 38 -1.00348668545373939e-03
 39  0.00000000000000000e+00
 40  0.00000000000000000e+00
 41  8.74213208490190880e-02
 42  0.00000000000000000e+00
 43  0.00000000000000000e+00
 44  0.00000000000000000e+00
 45  5.38094275260549218e-02
 46  0.00000000000000000e+00
 47  0.00000000000000000e+00
 48 -6.04654189397971957e-04
 49  0.00000000000000000e+00
 50  0.00000000000000000e+00
 51  0.00000000000000000e+00
 52 -9.79903823530136470e-03
 53  0.00000000000000000e+00
 54  0.00000000000000000e+00
 55  0.00000000000000000e+00
 56 -2.54542392987305542e-02
 57 -3.12770636522523904e-01
 58 -3.02933810248818691e+00
 59  3.27659328126521820e-01
 60 -2.35483372607540944e-02
 61  0.00000000000000000e+00
 62  2.31115673896219904e-02
 63  2.97107330329854480e-01
 64  0.00000000000000000e+00
 65 -2.03934142931901957e-01
 66  4.10803211643899380e-01
 67  0.00000000000000000e+00
 68 -2.48625622846128935e-01
 69  2.86041762039550827e-04
 70  1.16704661550071642e-02
 71  0.00000000000000000e+00
 72 -1.05376878604579345e-02
 73  0.00000000000000000e+00
 74  1.97619882080282694e-02
 75  1.10803937917543352e-01
 76  0.00000000000000000e+00
 77 -7.19686494338908633e-02
 78  0.00000000000000000e+00
 79  7.32398918150797135e-03
 80  8.46700857689564263e-04
 81  0.00000000000000000e+00
 82 -9.19908049344644006e-03
 83  0.00000000000000000e+00
 84  5.03462804230111506e-03
 85  0.00000000000000000e+00
 86  2.54542392987305542e-02
 87  3.12770636522523904e-01
 88  3.02933810248818691e+00
 89 -3.27659328126521820e-01
 90 -2.35483372607540944e-02
 91  0.00000000000000000e+00
 92 -2.31115673896219904e-02
 93  2.97107330329854480e-01
 94  0.00000000000000000e+00
 95  2.03934142931901957e-01