[Molden Format]
[Atoms] (AU)
O    1    8         0.000000000000      -0.000000000000       0.123905843730
H    2    1         1.430463150599       0.000000000000      -0.983237827968
H    3    1        -1.430463150599      -0.000000000000      -0.983237827968
[GTO]
  1 0
 s    8  1.00
    11720.0000000000         0.0007100000
     1759.0000000000         0.0054700000
      400.8000000000         0.0278370000
      113.7000000000         0.1048000000
       37.0300000000         0.2830620000
       13.2700000000         0.4487190000
        5.0250000000         0.2709520000
        1.0130000000         0.0154580000
 s    8  1.00
    11720.0000000000        -0.0001600000
     1759.0000000000        -0.0012630000
      400.8000000000        -0.0062670000
      113.7000000000        -0.0257160000
       37.0300000000        -0.0709240000
       13.2700000000        -0.1654110000
        5.0250000000        -0.1169550000
        1.0130000000         0.5573680000
 s    1  1.00
        0.3023000000         1.0000000000
 p    3  1.00
       17.7000000000         0.0430180000
        3.8540000000         0.2289130000
        1.0460000000         0.5087280000
 p    1  1.00
        0.2753000000         1.0000000000
 d    1  1.00
        1.1850000000         1.0000000000

  2 0
 s    3  1.00
       13.0100000000         0.0196850000
        1.9620000000         0.1379770000
        0.4446000000         0.4781480000
 s    1  1.00
        0.1220000000         1.0000000000
 p    1  1.00
        0.7270000000         1.0000000000

  3 0
 s    3  1.00
       13.0100000000         0.0196850000
        1.9620000000         0.1379770000
        0.4446000000         0.4781480000
 s    1  1.00
        0.1220000000         1.0000000000
 p    1  1.00
        0.7270000000         1.0000000000

[5D]
[9G]

[MO]
 Sym= A1
 Ene= -2.05504150208945298e+01
 Spin= Alpha
 Occup=  2.00000000000000000e+00
  1  1.00090002710288628e+00
  2  1.17612032950474912e-03
  3 -2.66526106628956795e-03
  4  0.00000000000000000e+00
  5  0.00000000000000000e+00
  6 -1.76309998516102303e-03
  7  0.00000000000000000e+00
  8  0.00000000000000000e+00
  9  4.83505710631916715e-04
 10  1.10146771562510041e-05
 11  0.00000000000000000e+00
 12  0.00000000000000000e+00
 13  1.38668733963837239e-04
 14  0.00000000000000000e+00
 15 -2.42033260371344173e-04
 16  4.21362190603710599e-04
 17  5.72079379104744961e-04
 18  0.00000000000000000e+00
 19 -4.82241517770880105e-04
 20 -2.42033260371344173e-04
 21  4.21362190603710599e-04
 22 -5.72079379104744961e-04
 23  0.00000000000000000e+00
 24 -4.82241517770880105e-04
 Sym= A1
 Ene= -1.33670165876380720e+00
 Spin= Alpha
 Occup=  2.00000000000000000e+00
  1  8.22105943022937227e-03
  2 -4.42871879175759486e-01
  3 -3.75674710630271746e-01
  4  0.00000000000000000e+00
  5  0.00000000000000000e+00
  6  7.88358072090542261e-02
  7  0.00000000000000000e+00
  8  0.00000000000000000e+00
  9 -1.31008973215290068e-02
 10 -1.24017887957972219e-03
 11  0.00000000000000000e+00
 12  0.00000000000000000e+00
 13 -3.01658729634651139e-03
 14  0.00000000000000000e+00
 15 -1.93624613268287199e-01
 16 -1.00821989762216960e-02
 17  3.73391128876145034e-02
 18  0.00000000000000000e+00
 19 -2.04781454243978742e-02
 20 -1.93624613268287199e-01
 21 -1.00821989762216960e-02
 22 -3.73391128876145034e-02
 23  0.00000000000000000e+00
 24 -2.04781454243978742e-02
 Sym= B1
 Ene= -6.99334734265715352e-01
 Spin= Alpha
 Occup=  2.00000000000000000e+00
  1  0.00000000000000000e+00
  2  0.00000000000000000e+00
  3  0.00000000000000000e+00
  4  4.89978645679911617e-01
  5  0.00000000000000000e+00
  6  0.00000000000000000e+00
  7  2.21824647180698470e-01
  8  0.00000000000000000e+00
  9  0.00000000000000000e+00
 10  0.00000000000000000e+00
 11 -2.68123091055988659e-02
 12  0.00000000000000000e+00
 13  0.00000000000000000e+00
 14  0.00000000000000000e+00
 15  3.28012883179264692e-01
 16  8.97480392857070430e-02
 17 -2.33233511576790009e-02
 18  0.00000000000000000e+00
 19  3.26654509727573386e-02
 20 -3.28012883179264692e-01
 21 -8.97480392857070430e-02
 22 -2.33233511576790009e-02
 23  0.00000000000000000e+00
 24 -3.26654509727573386e-02
 Sym= A1
 Ene= -5.66561720028885829e-01
 Spin= Alpha
 Occup=  2.00000000000000000e+00
  1  2.16221941430992269e-03
  2 -1.50390386470019038e-01
  3 -3.49807559704825244e-01
  4  0.00000000000000000e+00
  5  0.00000000000000000e+00
  6 -5.45510456582734338e-01
  7  0.00000000000000000e+00
  8  0.00000000000000000e+00
  9 -3.65357361158891836e-01
 10  1.78743229609375845e-02
 11  0.00000000000000000e+00
 12  0.00000000000000000e+00
 13  4.59605800824815832e-03
 14  0.00000000000000000e+00
 15  2.06361293870795992e-01
 16  4.02953417619340420e-02
 17 -3.17563272820209005e-02
 18  0.00000000000000000e+00
 19 -7.55212945443166795e-03
 20  2.06361293870795992e-01
 21  4.02953417619340420e-02
 22  3.17563272820209005e-02
 23  0.00000000000000000e+00
 24 -7.55212945443166795e-03
 Sym= B2
 Ene= -4.93145988515213296e-01
 Spin= Alpha
 Occup=  2.00000000000000000e+00
  1  0.00000000000000000e+00
  2  0.00000000000000000e+00
  3  0.00000000000000000e+00
  4  0.00000000000000000e+00
  5  6.31165458821801861e-01
  6  0.00000000000000000e+00
  7  0.00000000000000000e+00
  8  4.95652053353198396e-01
  9  0.00000000000000000e+00
 10  0.00000000000000000e+00
 11  0.00000000000000000e+00
 12 -1.82056000846446651e-02
 13  0.00000000000000000e+00
 14  0.00000000000000000e+00
 15  0.00000000000000000e+00
 16  0.00000000000000000e+00
 17  0.00000000000000000e+00
 18  3.10814777833465783e-02
 19  0.00000000000000000e+00
 20  0.00000000000000000e+00
 21  0.00000000000000000e+00
 22  0.00000000000000000e+00
 23  3.10814777833465783e-02
 24  0.00000000000000000e+00
 Sym= A1
 Ene=  1.85577884726272097e-01
 Spin= Alpha
 Occup=  0.00000000000000000e+00
  1  5.20587341964498448e-02
  2 -7.26080703469510064e-02
  3 -1.00286108765604465e+00
  4  0.00000000000000000e+00
  5  0.00000000000000000e+00
  6  1.90450444125958240e-01
  7  0.00000000000000000e+00
  8  0.00000000000000000e+00
  9  3.36893796033832016e-01
 10 -7.52277225988910638e-03
 11  0.00000000000000000e+00
 12  0.00000000000000000e+00
 13 -9.99332995429614082e-03
 14  0.00000000000000000e+00
 15  5.89423218280178962e-02
 16  8.29351606804241248e-01
 17 -1.75745885007318227e-02
 18  0.00000000000000000e+00
 19  1.63343386641460267e-02
 20  5.89423218280178962e-02
 21  8.29351606804241248e-01
 22  1.75745885007318227e-02
 23  0.00000000000000000e+00
 24  1.63343386641460267e-02
 Sym= B1
 Ene=  2.56257214886942031e-01
 Spin= Alpha
 Occup=  0.00000000000000000e+00
  1  0.00000000000000000e+00
  2  0.00000000000000000e+00
  3  0.00000000000000000e+00
  4  2.83133571923280591e-01
  5  0.00000000000000000e+00
  6  0.00000000000000000e+00
  7  6.71016892114325247e-01
  8  0.00000000000000000e+00
  9  0.00000000000000000e+00
 10  0.00000000000000000e+00
 11 -2.12719046862260737e-02
 12  0.00000000000000000e+00
 13  0.00000000000000000e+00
 14  0.00000000000000000e+00
 15 -2.59132442597129684e-02
 16 -1.44453792304328643e+00
 17  2.08472147699260875e-02
 18  0.00000000000000000e+00
 19 -1.71755330714226349e-02
 20  2.59132442597129684e-02
 21  1.44453792304328643e+00
 22  2.08472147699260875e-02
 23  0.00000000000000000e+00
 24  1.71755330714226349e-02
 Sym= B1
 Ene=  7.89376403676204430e-01
 Spin= Alpha
 Occup=  0.00000000000000000e+00
  1  0.00000000000000000e+00
  2  0.00000000000000000e+00
  3  0.00000000000000000e+00
  4  2.67945314574512317e-01
  5  0.00000000000000000e+00
  6  0.00000000000000000e+00
  7  4.61472771112619862e-01
  8  0.00000000000000000e+00
  9  0.00000000000000000e+00
 10  0.00000000000000000e+00
 11  1.11739809663906550e-01
 12  0.00000000000000000e+00
 13  0.00000000000000000e+00
 14  0.00000000000000000e+00
 15 -9.44365342327674440e-01
 16  6.85865440904131929e-01
 17 -7.40269619974607551e-02
 18  0.00000000000000000e+00
 19  1.52987734736601738e-01
 20  9.44365342327674440e-01
 21 -6.85865440904131929e-01
 22 -7.40269619974607551e-02
 23  0.00000000000000000e+00
 24 -1.52987734736601738e-01
 Sym= A1
 Ene=  8.54328039122863703e-01
 Spin= Alpha
 Occup=  0.00000000000000000e+00
  1  6.50605932777336693e-02
  2  2.55754502575346432e-01
  3 -3.19578157505711891e-01
  4  0.00000000000000000e+00
  5  0.00000000000000000e+00
  6 -3.29128730487127263e-01
  7  0.00000000000000000e+00
  8  0.00000000000000000e+00
  9  9.71072239212756802e-03
 10 -9.13584888344966652e-04
 11  0.00000000000000000e+00
 12  0.00000000000000000e+00
 13 -1.07076323196075962e-01
 14  0.00000000000000000e+00
 15 -7.87440135828416765e-01
 16  5.47603381306541737e-01
 17 -2.96165599631629917e-01
 18  0.00000000000000000e+00
 19  5.91379098026929839e-02
 20 -7.87440135828416765e-01
 21  5.47603381306541737e-01
 22  2.96165599631629917e-01
 23  0.00000000000000000e+00
 24  5.91379098026929839e-02
 Sym= A1
 Ene=  1.16349789458796660e+00
 Spin= Alpha
 Occup=  0.00000000000000000e+00
  1  3.12147940740922607e-03
  2  1.14637838729088143e-01
  3  7.49636131564557662e-01
  4  0.00000000000000000e+00
  5  0.00000000000000000e+00
  6  7.54480191872609840e-01
  7  0.00000000000000000e+00
  8  0.00000000000000000e+00
  9 -1.27937676005178780e+00
 10  1.27346127906666703e-02
 11  0.00000000000000000e+00
 12  0.00000000000000000e+00
 13 -6.64773393133187215e-03
 14  0.00000000000000000e+00
 15 -5.46997087350002964e-01
 16 -1.13179823854329037e-01
 17  8.45904188339805102e-02
 18  0.00000000000000000e+00
 19 -2.50628578532790025e-01
 20 -5.46997087350002964e-01
 21 -1.13179823854329037e-01
 22 -8.45904188339805102e-02
 23  0.00000000000000000e+00
 24 -2.50628578532790025e-01
 Sym= B2
 Ene=  1.20038806493280514e+00
 Spin= Alpha
 Occup=  0.00000000000000000e+00
  1  0.00000000000000000e+00
  2  0.00000000000000000e+00
  3  0.00000000000000000e+00
  4  0.00000000000000000e+00
  5  9.67823175889030218e-01
  6  0.00000000000000000e+00
  7  0.00000000000000000e+00
  8 -1.02530435813737975e+00
  9  0.00000000000000000e+00
 10  0.00000000000000000e+00
 11  0.00000000000000000e+00
 12 -3.53022798781700217e-03
 13  0.00000000000000000e+00
 14  0.00000000000000000e+00
 15  0.00000000000000000e+00
 16  0.00000000000000000e+00
 17  0.00000000000000000e+00
 18 -7.99854885592490329e-03
 19  0.00000000000000000e+00
 20  0.00000000000000000e+00
 21  0.00000000000000000e+00
 22  0.00000000000000000e+00
 23 -7.99854885592490329e-03
 24  0.00000000000000000e+00
 Sym= B1
 Ene=  1.25328994546984562e+00
 Spin= Alpha
 Occup=  0.00000000000000000e+00
  1  0.00000000000000000e+00
  2  0.00000000000000000e+00
  3  0.00000000000000000e+00
  4  7.33979490787090794e-01
  5  0.00000000000000000e+00
  6  0.00000000000000000e+00
  7 -1.76447501660680217e+00
  8  0.00000000000000000e+00
  9  0.00000000000000000e+00
 10  0.00000000000000000e+00
 11  4.46400347620511326e-02
 12  0.00000000000000000e+00
 13  0.00000000000000000e+00
 14  0.00000000000000000e+00
 15  3.79581839920249520e-01
 16  8.25619588162783025e-01
 17 -3.02737468579241831e-01
 18  0.00000000000000000e+00
 19  1.86698841094275675e-01
 20 -3.79581839920249520e-01
 21 -8.25619588162783025e-01
 22 -3.02737468579241831e-01
 23  0.00000000000000000e+00
 24 -1.86698841094275675e-01
 Sym= A1
 Ene=  1.44467273206015734e+00
 Spin= Alpha
 Occup=  0.00000000000000000e+00
  1  2.02102033887982063e-01
  2  5.29508561381655252e-01
  3 -5.07855786554780586e-01
  4  0.00000000000000000e+00
  5  0.00000000000000000e+00
  6  1.32138676841564606e-01
  7  0.00000000000000000e+00
  8  0.00000000000000000e+00
  9 -7.39327480455184149e-01
 10 -1.17173949064226721e-01
 11  0.00000000000000000e+00
 12  0.00000000000000000e+00
 13  4.61168125314297128e-03
 14  0.00000000000000000e+00
 15 -3.32952836816456543e-01
 16  2.09756261830257307e-01
 17  3.28948599169890443e-01
 18  0.00000000000000000e+00
 19  5.45845555080169631e-01
 20 -3.32952836816456543e-01
 21  2.09756261830257307e-01
 22 -3.28948599169890443e-01
 23  0.00000000000000000e+00
 24  5.45845555080169631e-01
 Sym= A2
 Ene=  1.47624245610892202e+00
 Spin= Alpha
 Occup=  0.00000000000000000e+00
  1  0.00000000000000000e+00
  2  0.00000000000000000e+00
  3  0.00000000000000000e+00
  4  0.00000000000000000e+00
  5  0.00000000000000000e+00
  6  0.00000000000000000e+00
  7  0.00000000000000000e+00
  8  0.00000000000000000e+00
  9  0.00000000000000000e+00
 10  0.00000000000000000e+00
 11  0.00000000000000000e+00
 12  0.00000000000000000e+00
 13  0.00000000000000000e+00
 14  1.31242278693634085e-01
 15  0.00000000000000000e+00
 16  0.00000000000000000e+00
 17  0.00000000000000000e+00
 18  6.85611083703509538e-01
 19  0.00000000000000000e+00
 20  0.00000000000000000e+00
 21  0.00000000000000000e+00
 22  0.00000000000000000e+00
 23 -6.85611083703509538e-01
 24  0.00000000000000000e+00
 Sym= B2
 Ene=  1.67473826417958671e+00
 Spin= Alpha
 Occup=  0.00000000000000000e+00
  1  0.00000000000000000e+00
  2  0.00000000000000000e+00
  3  0.00000000000000000e+00
  4  0.00000000000000000e+00
  5  2.04848908556962903e-02
  6  0.00000000000000000e+00
  7  0.00000000000000000e+00
  8  6.33568189130828574e-01
  9  0.00000000000000000e+00
 10  0.00000000000000000e+00
 11  0.00000000000000000e+00
 12  1.60766990486790745e-01
 13  0.00000000000000000e+00
 14  0.00000000000000000e+00
 15  0.00000000000000000e+00
 16  0.00000000000000000e+00
 17  0.00000000000000000e+00
 18 -7.67149396323581700e-01
 19  0.00000000000000000e+00
 20  0.00000000000000000e+00
 21  0.00000000000000000e+00
 22  0.00000000000000000e+00
 23 -7.67149396323581700e-01
 24  0.00000000000000000e+00
 Sym= A1
 Ene=  1.86731239782609837e+00
 Spin= Alpha
 Occup=  0.00000000000000000e+00
  1  7.24241047301876550e-01
  2  1.59267037033268410e+00
  3 -3.03501414185229557e+00
  4  0.00000000000000000e+00
  5  0.00000000000000000e+00
  6  1.10264094260093204e-01
  7  0.00000000000000000e+00
  8  0.00000000000000000e+00
  9  9.67826096923554480e-01
 10  1.14168958115395236e-01
 11  0.00000000000000000e+00
 12  0.00000000000000000e+00
 13  1.08119110789413886e-01
 14  0.00000000000000000e+00
 15  8.28847700200290638e-01
 16  3.88083410455192901e-01
 17 -3.73183185069620504e-01
 18  0.00000000000000000e+00
 19 -2.35957390450654073e-02
 20  8.28847700200290638e-01
 21  3.88083410455192901e-01
 22  3.73183185069620504e-01
 23  0.00000000000000000e+00
 24 -2.35957390450654073e-02
 Sym= B1
 Ene=  1.93490615223189533e+00
 Spin= Alpha
 Occup=  0.00000000000000000e+00
  1  0.00000000000000000e+00
  2  0.00000000000000000e+00
  3  0.00000000000000000e+00
  4  1.04144321020168216e-02
  5  0.00000000000000000e+00
  6  0.00000000000000000e+00
  7 -9.01961908117047795e-01
  8  0.00000000000000000e+00
  9  0.00000000000000000e+00
 10  0.00000000000000000e+00
 11 -2.93933102034102181e-02
 12  0.00000000000000000e+00
 13  0.00000000000000000e+00
 14  0.00000000000000000e+00
 15  3.87945805766574392e-01
 16  9.15864363181179975e-02
 17  4.72028114059759141e-01
 18  0.00000000000000000e+00
 19  6.93104921490495629e-01
 20 -3.87945805766574392e-01
 21 -9.15864363181179975e-02
 22  4.72028114059759141e-01
 23  0.00000000000000000e+00
 24 -6.93104921490495629e-01
 Sym= B1
 Ene=  2.45303410757598384e+00
 Spin= Alpha
 Occup=  0.00000000000000000e+00
  1  0.00000000000000000e+00
  2  0.00000000000000000e+00
  3  0.00000000000000000e+00
  4  8.39575017280944080e-01
  5  0.00000000000000000e+00
  6  0.00000000000000000e+00
  7  1.52865643684309632e-01
  8  0.00000000000000000e+00
  9  0.00000000000000000e+00
 10  0.00000000000000000e+00
 11  1.38714407394534389e-01
 12  0.00000000000000000e+00
 13  0.00000000000000000e+00
 14  0.00000000000000000e+00
 15 -2.95838154550014110e-01
 16 -3.29964908122919176e-01
 17  7.24418364357748312e-01
 18  0.00000000000000000e+00
 19 -5.55276885882344584e-01
 20  2.95838154550014110e-01
 21  3.29964908122919176e-01
 22  7.24418364357748312e-01
 23  0.00000000000000000e+00
 24  5.55276885882344584e-01
 Sym= A1
 Ene=  2.49048988287395812e+00
 Spin= Alpha
 Occup=  0.00000000000000000e+00
  1  2.78727409397029280e-01
  2  7.29873137729527111e-01
  3  7.92441751077126777e-01
  4  0.00000000000000000e+00
  5  0.00000000000000000e+00
  6 -6.69449329416109240e-01
  7  0.00000000000000000e+00
  8  0.00000000000000000e+00
  9 -1.79690586860798446e-01
 10 -5.32052985025910571e-02
 11  0.00000000000000000e+00
 12  0.00000000000000000e+00
 13 -2.17602891233894535e-01
 14  0.00000000000000000e+00
 15 -4.78956676713660656e-01
 16 -1.58742484393178451e-01
 17  7.44735496492524573e-01
 18  0.00000000000000000e+00
 19 -5.36742567552647709e-01
 20 -4.78956676713660656e-01
 21 -1.58742484393178451e-01
 22 -7.44735496492524573e-01
 23  0.00000000000000000e+00
 24 -5.36742567552647709e-01
 Sym= B2
 Ene=  3.28565831703228461e+00
 Spin= Alpha
 Occup=  0.00000000000000000e+00
  1  0.00000000000000000e+00
  2  0.00000000000000000e+00
  3  0.00000000000000000e+00
  4  0.00000000000000000e+00
  5  1.14002812105367356e-02
  6  0.00000000000000000e+00
  7  0.00000000000000000e+00
  8 -3.11773611597572997e-01
  9  0.00000000000000000e+00
 10  0.00000000000000000e+00
 11  0.00000000000000000e+00
 12  1.04283600188239522e+00
 13  0.00000000000000000e+00
 14  0.00000000000000000e+00
 15  0.00000000000000000e+00
 16  0.00000000000000000e+00
 17  0.00000000000000000e+00
 18  3.98492422121950962e-01
 19  0.00000000000000000e+00
 20  0.00000000000000000e+00
 21  0.00000000000000000e+00
 22  0.00000000000000000e+00
 23  3.98492422121950962e-01
 24  0.00000000000000000e+00
 Sym= A2
 Ene=  3.33900129895557285e+00
 Spin= Alpha
 Occup=  0.00000000000000000e+00
  1  0.00000000000000000e+00
  2  0.00000000000000000e+00
  3  0.00000000000000000e+00
  4  0.00000000000000000e+00
  5  0.00000000000000000e+00
  6  0.00000000000000000e+00
  7  0.00000000000000000e+00
  8  0.00000000000000000e+00
  9  0.00000000000000000e+00
 10  0.00000000000000000e+00
 11  0.00000000000000000e+00
 12  0.00000000000000000e+00
 13  0.00000000000000000e+00
 14  1.06631157713146085e+00
 15  0.00000000000000000e+00
 16  0.00000000000000000e+00
 17  0.00000000000000000e+00
 18 -3.71615943970217355e-01
 19  0.00000000000000000e+00
 20  0.00000000000000000e+00
 21  0.00000000000000000e+00
 22  0.00000000000000000e+00
 23  3.71615943970217355e-01
 24  0.00000000000000000e+00
 Sym= A1
 Ene=  3.51056862788340851e+00
 Spin= Alpha
 Occup=  0.00000000000000000e+00
  1  8.43184621520659677e-02
  2  1.54258101293614558e-01
  3 -5.61559035440677090e-01
  4  0.00000000000000000e+00
  5  0.00000000000000000e+00
  6  1.99215405173580884e-02
  7  0.00000000000000000e+00
  8  0.00000000000000000e+00
  9  5.39306914537927784e-01
 10 -1.08483059861231657e+00
 11  0.00000000000000000e+00
 12  0.00000000000000000e+00
 13  1.74244987760818676e-01
 14  0.00000000000000000e+00
 15  3.08067555916441693e-01
 16  3.81652529092138884e-02
 17 -3.53386226480629784e-01
 18  0.00000000000000000e+00
 19 -3.14877463953291858e-01
 20  3.08067555916441693e-01
 21  3.81652529092138884e-02
 22  3.53386226480629784e-01
 23  0.00000000000000000e+00
 24 -3.14877463953291858e-01
 Sym= A1
 Ene=  3.86603250996994774e+00
 Spin= Alpha
 Occup=  0.00000000000000000e+00
  1  1.42218163682864968e-01
  2  1.74723073053842520e-01
  3 -2.26902591062841807e+00
  4  0.00000000000000000e+00
  5  0.00000000000000000e+00
  6  4.05323101875110281e-01
  7  0.00000000000000000e+00
  8  0.00000000000000000e+00
  9  9.21139054418481318e-01
 10 -1.33303546229442654e-01
 11  0.00000000000000000e+00
 12  0.00000000000000000e+00
 13 -1.16019318420166617e+00
 14  0.00000000000000000e+00
 15  1.23888920742246844e+00
 16  1.91741700627476142e-01
 17 -6.20600939633930482e-01
 18  0.00000000000000000e+00
 19  4.93800612674529404e-01
 20  1.23888920742246844e+00
 21  1.91741700627476142e-01
 22  6.20600939633930482e-01
 23  0.00000000000000000e+00
 24  4.93800612674529404e-01
 Sym= B1
 Ene=  4.14750992379067096e+00
 Spin= Alpha
 Occup=  0.00000000000000000e+00
  1  0.00000000000000000e+00
  2  0.00000000000000000e+00
  3  0.00000000000000000e+00
  4  4.69475685827492217e-01
  5  0.00000000000000000e+00
  6  0.00000000000000000e+00
  7  1.14497467680762322e+00
  8  0.00000000000000000e+00
  9  0.00000000000000000e+00
 10  0.00000000000000000e+00
 11 -1.32557431029894346e+00
 12  0.00000000000000000e+00
 13  0.00000000000000000e+00
 14  0.00000000000000000e+00
 15 -1.08734518954285564e+00
 16 -2.88620924500894493e-01
 17  6.06319179439460454e-01
 18  0.00000000000000000e+00
 19 -4.93618136752970671e-01
 20  1.08734518954285564e+00
 21  2.88620924500894493e-01
 22  6.06319179439460454e-01
 23  0.00000000000000000e+00
 24  4.93618136752970671e-01
