[Molden Format]
[Atoms] (AU)
O    1    8         0.000000000000      -0.000000000000       0.123905843730
H    2    1         1.430463150599       0.000000000000      -0.983237827968
H    3    1        -1.430463150599      -0.000000000000      -0.983237827968
[GTO]
  1 0
 s    3  1.00
      130.7093200000         0.1543289700
       23.8088610000         0.5353281400
        6.4436083000         0.4446345400
 s    3  1.00
        5.0331513000        -0.0999672300
        1.1695961000         0.3995128300
        0.3803890000         0.7001154700
 p    3  1.00
        5.0331513000         0.1559162700
        1.1695961000         0.6076837200
        0.3803890000         0.3919573900

  2 0
 s    3  1.00
        3.4252509100         0.1543289700
        0.6239137300         0.5353281400
        0.1688554000         0.4446345400

  3 0
 s    3  1.00
        3.4252509100         0.1543289700
        0.6239137300         0.5353281400
        0.1688554000         0.4446345400

[5D]
[9G]

[MO]
 Sym= A1
 Ene= -2.02417374623951432e+01
 Spin= Alpha
 Occup=  2.00000000000000000e+00
  1  9.94129477194884648e-01
  2  2.65622143954259704e-02
  3  0.00000000000000000e+00
  4  0.00000000000000000e+00
  5 -4.34623721129072296e-03
  6 -5.97197433680824764e-03
  7 -5.97197433680824764e-03
 Sym= A1
 Ene= -1.26840143447449782e+00
 Spin= Alpha
 Occup=  2.00000000000000000e+00
  1  2.32786315646887787e-01
  2 -8.33495324054643993e-01
  3  0.00000000000000000e+00
  4  0.00000000000000000e+00
  5  1.29593981090151827e-01
  6 -1.58721268509342539e-01
  7 -1.58721268509342539e-01
 Sym= B1
 Ene= -6.17932236746769448e-01
 Spin= Alpha
 Occup=  2.00000000000000000e+00
  1  0.00000000000000000e+00
  2  0.00000000000000000e+00
  3  6.06440235191069266e-01
  4  0.00000000000000000e+00
  5  0.00000000000000000e+00
  6  4.45000589787011958e-01
  7 -4.45000589787011958e-01
 Sym= A1
 Ene= -4.52988419248488150e-01
 Spin= Alpha
 Occup=  2.00000000000000000e+00
  1  1.03174132295945450e-01
  2 -5.36852062141186859e-01
  3  0.00000000000000000e+00
  4  0.00000000000000000e+00
  5 -7.76748468227451139e-01
  6  2.77829101548317525e-01
  7  2.77829101548317525e-01
 Sym= B2
 Ene= -3.91242446144965728e-01
 Spin= Alpha
 Occup=  2.00000000000000000e+00
  1  0.00000000000000000e+00
  2  0.00000000000000000e+00
  3  0.00000000000000000e+00
  4  1.00000000000000022e+00
  5  0.00000000000000000e+00
  6  0.00000000000000000e+00
  7  0.00000000000000000e+00
 Sym= A1
 Ene=  6.05660192263620001e-01
 Spin= Alpha
 Occup=  0.00000000000000000e+00
  1  1.32390940068163682e-01
  2 -8.84749414795491407e-01
  3  0.00000000000000000e+00
  4  0.00000000000000000e+00
  5  7.42302750618627716e-01
  6  7.97157198290153413e-01
  7  7.97157198290153413e-01
 Sym= B1
 Ene=  7.42392989317479435e-01
 Spin= Alpha
 Occup=  0.00000000000000000e+00
  1  0.00000000000000000e+00
  2  0.00000000000000000e+00
  3  9.90603254000388178e-01
  4  0.00000000000000000e+00
  5  0.00000000000000000e+00
  6 -8.38688527738232548e-01
  7  8.38688527738232548e-01
