[Molden Format]
[Atoms] (AU)
O    1    8         0.000000000000      -0.000000000000       0.123905843730
H    2    1         1.430463150599       0.000000000000      -0.983237827968
H    3    1        -1.430463150599      -0.000000000000      -0.983237827968
[GTO]
  1 0
 s    8  1.00
    15330.0000000000         0.0005080000
     2299.0000000000         0.0039290000
      522.4000000000         0.0202430000
      147.3000000000         0.0791810000
       47.5500000000         0.2306870000
       16.7600000000         0.4331180000
        6.2070000000         0.3502600000
        0.6882000000        -0.0081540000
 s    8  1.00
    15330.0000000000        -0.0001150000
     2299.0000000000        -0.0008950000
      522.4000000000        -0.0046360000
      147.3000000000        -0.0187240000
       47.5500000000        -0.0584630000
       16.7600000000        -0.1364630000
        6.2070000000        -0.1757400000
        0.6882000000         0.6034180000
 s    1  1.00
        1.7520000000         1.0000000000
 s    1  1.00
        0.2384000000         1.0000000000
 p    3  1.00
       34.4600000000         0.0159280000
        7.7490000000         0.0997400000
        2.2800000000         0.3104920000
 p    1  1.00
        0.7156000000         1.0000000000
 p    1  1.00
        0.2140000000         1.0000000000
 d    1  1.00
        2.3140000000         1.0000000000
 d    1  1.00
        0.6450000000         1.0000000000
 f    1  1.00
        1.4280000000         1.0000000000

  2 0
 s    3  1.00
       33.8700000000         0.0060680000
        5.0950000000         0.0453080000
        1.1590000000         0.2028220000
 s    1  1.00
        0.3258000000         1.0000000000
 s    1  1.00
        0.1027000000         1.0000000000
 p    1  1.00
        1.4070000000         1.0000000000
 p    1  1.00
        0.3880000000         1.0000000000
 d    1  1.00
        1.0570000000         1.0000000000

  3 0
 s    3  1.00
       33.8700000000         0.0060680000
        5.0950000000         0.0453080000
        1.1590000000         0.2028220000
 s    1  1.00
        0.3258000000         1.0000000000
 s    1  1.00
        0.1027000000         1.0000000000
 p    1  1.00
        1.4070000000         1.0000000000
 p    1  1.00
        0.3880000000         1.0000000000
 d    1  1.00
        1.0570000000         1.0000000000

[5D]
[9G]

[MO]
 Sym= A1
 Ene= -2.05547259285232293e+01
 Spin= Alpha
 Occup=  2.00000000000000000e+00
  1  9.75870930528289104e-01
  2 -6.01557865332626586e-04
  3  4.35114784103034571e-02
  4  1.19567697289875039e-03
  5  0.00000000000000000e+00
  6  0.00000000000000000e+00
  7 -1.89353835813738059e-03
  8  0.00000000000000000e+00
  9  0.00000000000000000e+00
 10  1.48528418080159496e-03
 11  0.00000000000000000e+00
 12  0.00000000000000000e+00
 13  1.51840791255664163e-04
 14  2.18096395125867708e-05
 15  0.00000000000000000e+00
 16  0.00000000000000000e+00
 17  4.97256713096137421e-05
 18  0.00000000000000000e+00
 19 -1.68529713893517461e-04
 20  0.00000000000000000e+00
 21  0.00000000000000000e+00
 22 -4.97469802521511759e-04
 23  0.00000000000000000e+00
 24 -7.29094247378742232e-06
 25  0.00000000000000000e+00
 26  0.00000000000000000e+00
 27  9.69316090572356189e-05
 28  0.00000000000000000e+00
 29  0.00000000000000000e+00
 30  0.00000000000000000e+00
 31  5.05255078973934841e-04
 32  1.00678105896537771e-03
 33 -2.52557088281397588e-04
 34 -2.34333470496314632e-04
 35  0.00000000000000000e+00
 36  1.25262902698821001e-04
 37 -4.50412564048838151e-04
 38  0.00000000000000000e+00
 39  3.04421378306545031e-04
 40 -5.62261943224175390e-05
 41  1.23725320918453635e-04
 42  0.00000000000000000e+00
 43 -1.54161335134945813e-05
 44  0.00000000000000000e+00
 45  5.05255078973934841e-04
 46  1.00678105896537771e-03
 47 -2.52557088281397588e-04
 48  2.34333470496314632e-04
 49  0.00000000000000000e+00
 50  1.25262902698821001e-04
 51  4.50412564048838151e-04
 52  0.00000000000000000e+00
 53  3.04421378306545031e-04
 54 -5.62261943224175390e-05
 55 -1.23725320918453635e-04
 56  0.00000000000000000e+00
 57 -1.54161335134945813e-05
 58  0.00000000000000000e+00
 Sym= A1
 Ene= -1.34566825885352226e+00
 Spin= Alpha
 Occup=  2.00000000000000000e+00
  1  8.60373906624267021e-03
  2 -5.04130541743238347e-01
  3 -1.32156483075665188e-01
  4 -2.83620644681143508e-01
  5  0.00000000000000000e+00
  6  0.00000000000000000e+00
  7  4.45240710120410055e-02
  8  0.00000000000000000e+00
  9  0.00000000000000000e+00
 10  6.37875695029940237e-02
 11  0.00000000000000000e+00
 12  0.00000000000000000e+00
 13  1.24341413586158984e-02
 14 -1.01870607798639976e-03
 15  0.00000000000000000e+00
 16  0.00000000000000000e+00
 17 -3.82611086870499268e-03
 18  0.00000000000000000e+00
 19 -2.87298231074755925e-03
 20  0.00000000000000000e+00
 21  0.00000000000000000e+00
 22 -7.62857045057763541e-03
 23  0.00000000000000000e+00
 24 -8.66328995935516325e-04
 25  0.00000000000000000e+00
 26  0.00000000000000000e+00
 27  2.85632782002335052e-03
 28  0.00000000000000000e+00
 29  0.00000000000000000e+00
 30  0.00000000000000000e+00
 31 -8.94098763260369883e-02
 32 -7.28989838868562556e-02
 33 -6.23472519184683788e-03
 34  1.05145403785560018e-02
 35  0.00000000000000000e+00
 36 -7.42928753098584613e-03
 37  9.83587064139835113e-03
 38  0.00000000000000000e+00
 39 -4.91891961798994210e-03
 40  5.56530795226768658e-05
 41  1.96325180431072268e-03
 42  0.00000000000000000e+00
 43 -1.37144989726872661e-03
 44  0.00000000000000000e+00
 45 -8.94098763260369883e-02
 46 -7.28989838868562556e-02
 47 -6.23472519184683788e-03
 48 -1.05145403785560018e-02
 49  0.00000000000000000e+00
 50 -7.42928753098584613e-03
 51 -9.83587064139835113e-03
 52  0.00000000000000000e+00
 53 -4.91891961798994210e-03
 54  5.56530795226768658e-05
 55 -1.96325180431072268e-03
 56  0.00000000000000000e+00
 57 -1.37144989726872661e-03
 58  0.00000000000000000e+00
 Sym= B1
 Ene= -7.09817995338920871e-01
 Spin= Alpha
 Occup=  2.00000000000000000e+00
  1  0.00000000000000000e+00
  2  0.00000000000000000e+00
  3  0.00000000000000000e+00
  4  0.00000000000000000e+00
  5  2.82660632965055614e-01
  6  0.00000000000000000e+00
  7  0.00000000000000000e+00
  8  3.39848825155630196e-01
  9  0.00000000000000000e+00
 10  0.00000000000000000e+00
 11  1.58906763251708744e-01
 12  0.00000000000000000e+00
 13  0.00000000000000000e+00
 14  0.00000000000000000e+00
 15 -1.30866674718593760e-02
 16  0.00000000000000000e+00
 17  0.00000000000000000e+00
 18  0.00000000000000000e+00
 19  0.00000000000000000e+00
 20 -2.24256864277234298e-02
 21  0.00000000000000000e+00
 22  0.00000000000000000e+00
 23  0.00000000000000000e+00
 24  0.00000000000000000e+00
 25  1.99948649414130060e-04
 26  0.00000000000000000e+00
 27  0.00000000000000000e+00
 28  0.00000000000000000e+00
 29  3.31461222325033162e-03
 30  0.00000000000000000e+00
 31  1.42110655747474529e-01
 32  2.19891564648539206e-01
 33  6.13760675991326735e-02
 34 -9.53276746138185214e-03
 35  0.00000000000000000e+00
 36  1.28551909196332227e-02
 37 -1.95633237142853501e-02
 38  0.00000000000000000e+00
 39  2.38848674572100482e-02
 40  1.98530544733631353e-03
 41 -5.78647965942840140e-03
 42  0.00000000000000000e+00
 43  3.17877768464917831e-03
 44  0.00000000000000000e+00
 45 -1.42110655747474529e-01
 46 -2.19891564648539206e-01
 47 -6.13760675991326735e-02
 48 -9.53276746138185214e-03
 49  0.00000000000000000e+00
 50 -1.28551909196332227e-02
 51 -1.95633237142853501e-02
 52  0.00000000000000000e+00
 53 -2.38848674572100482e-02
 54 -1.98530544733631353e-03
 55 -5.78647965942840140e-03
 56  0.00000000000000000e+00
 57 -3.17877768464917831e-03
 58  0.00000000000000000e+00
 Sym= A1
 Ene= -5.77704016414981036e-01
 Spin= Alpha
 Occup=  2.00000000000000000e+00
  1  2.18715084475362698e-03
  2  1.79029297536533460e-01
  3  5.35390086179692928e-02
  4  2.77535576384016991e-01
  5  0.00000000000000000e+00
  6  0.00000000000000000e+00
  7  3.13007349162801596e-01
  8  0.00000000000000000e+00
  9  0.00000000000000000e+00
 10  3.82629945679799577e-01
 11  0.00000000000000000e+00
 12  0.00000000000000000e+00
 13  2.77360650230716599e-01
 14 -5.55301207604928793e-03
 15  0.00000000000000000e+00
 16  0.00000000000000000e+00
 17 -3.25711153798259427e-03
 18  0.00000000000000000e+00
 19 -1.81910823861488012e-02
 20  0.00000000000000000e+00
 21  0.00000000000000000e+00
 22 -5.76802639498579829e-03
 23  0.00000000000000000e+00
 24  6.92298261642592186e-04
 25  0.00000000000000000e+00
 26  0.00000000000000000e+00
 27  3.14488930588047470e-03
 28  0.00000000000000000e+00
 29  0.00000000000000000e+00
 30  0.00000000000000000e+00
 31 -8.60504820634128004e-02
 32 -1.39038463269553630e-01
 33 -2.60222728048526766e-02
 34  9.54753877980346090e-03
 35  0.00000000000000000e+00
 36  7.26061463332222158e-04
 37  2.14008415790981794e-02
 38  0.00000000000000000e+00
 39  1.23453886912663971e-02
 40  2.22205926965404624e-03
 41  7.14561351866689707e-04
 42  0.00000000000000000e+00
 43 -3.28485411534465378e-03
 44  0.00000000000000000e+00
 45 -8.60504820634128004e-02
 46 -1.39038463269553630e-01
 47 -2.60222728048526766e-02
 48 -9.54753877980346090e-03
 49  0.00000000000000000e+00
 50  7.26061463332222158e-04
 51 -2.14008415790981794e-02
 52  0.00000000000000000e+00
 53  1.23453886912663971e-02
 54  2.22205926965404624e-03
 55 -7.14561351866689707e-04
 56  0.00000000000000000e+00
 57 -3.28485411534465378e-03
 58  0.00000000000000000e+00
 Sym= B2
 Ene= -5.04473484252594417e-01
 Spin= Alpha
 Occup=  2.00000000000000000e+00
  1  0.00000000000000000e+00
  2  0.00000000000000000e+00
  3  0.00000000000000000e+00
  4  0.00000000000000000e+00
  5  0.00000000000000000e+00
  6  3.57044772812461830e-01
  7  0.00000000000000000e+00
  8  0.00000000000000000e+00
  9  4.44242611839547052e-01
 10  0.00000000000000000e+00
 11  0.00000000000000000e+00
 12  3.75691579703635981e-01
 13  0.00000000000000000e+00
 14  0.00000000000000000e+00
 15  0.00000000000000000e+00
 16 -5.22199574993168283e-03
 17  0.00000000000000000e+00
 18  0.00000000000000000e+00
 19  0.00000000000000000e+00
 20  0.00000000000000000e+00
 21 -1.80637822975180384e-02
 22  0.00000000000000000e+00
 23  0.00000000000000000e+00
 24  0.00000000000000000e+00
 25  0.00000000000000000e+00
 26  1.56819183879285638e-03
 27  0.00000000000000000e+00
 28  0.00000000000000000e+00
 29  0.00000000000000000e+00
 30  4.01835244779221237e-03
 31  0.00000000000000000e+00
 32  0.00000000000000000e+00
 33  0.00000000000000000e+00
 34  0.00000000000000000e+00
 35  1.00844750253398403e-02
 36  0.00000000000000000e+00
 37  0.00000000000000000e+00
 38  3.12048919980810885e-02
 39  0.00000000000000000e+00
 40  0.00000000000000000e+00
 41  0.00000000000000000e+00
 42  2.86896042848940307e-03
 43  0.00000000000000000e+00
 44 -4.14970943807029761e-03
 45  0.00000000000000000e+00
 46  0.00000000000000000e+00
 47  0.00000000000000000e+00
 48  0.00000000000000000e+00
 49  1.00844750253398403e-02
 50  0.00000000000000000e+00
 51  0.00000000000000000e+00
 52  3.12048919980810885e-02
 53  0.00000000000000000e+00
 54  0.00000000000000000e+00
 55  0.00000000000000000e+00
 56  2.86896042848940307e-03
 57  0.00000000000000000e+00
 58  4.14970943807029761e-03
 Sym= A1
 Ene=  1.42271692746149897e-01
 Spin= Alpha
 Occup=  0.00000000000000000e+00
  1  2.96793002749782299e-02
  2 -1.03651741437584280e-01
  3 -3.86694413040676588e-02
  4 -1.55495550485952849e+00
  5  0.00000000000000000e+00
  6  0.00000000000000000e+00
  7  7.88935842499739193e-02
  8  0.00000000000000000e+00
  9  0.00000000000000000e+00
 10  1.93871146463981792e-01
 11  0.00000000000000000e+00
 12  0.00000000000000000e+00
 13  4.61541545851693324e-01
 14 -9.92587332273303560e-04
 15  0.00000000000000000e+00
 16  0.00000000000000000e+00
 17  2.41211468162562436e-03
 18  0.00000000000000000e+00
 19 -8.77221513047190919e-03
 20  0.00000000000000000e+00
 21  0.00000000000000000e+00
 22 -5.18010695888295597e-02
 23  0.00000000000000000e+00
 24 -4.24752166964010008e-03
 25  0.00000000000000000e+00
 26  0.00000000000000000e+00
 27  8.60637189019025119e-03
 28  0.00000000000000000e+00
 29  0.00000000000000000e+00
 30  0.00000000000000000e+00
 31  2.72116021118493610e-02
 32  2.85045441940668887e-01
 33  9.21677137876002806e-01
 34  5.63627243601045290e-03
 35  0.00000000000000000e+00
 36 -1.44468728223862272e-03
 37 -1.44806499260342919e-01
 38  0.00000000000000000e+00
 39  1.10752751947980038e-01
 40  3.92872486610909739e-03
 41 -1.75837603350279259e-02
 42  0.00000000000000000e+00
 43  8.39863443477896314e-03
 44  0.00000000000000000e+00
 45  2.72116021118493610e-02
 46  2.85045441940668887e-01
 47  9.21677137876002806e-01
 48 -5.63627243601045290e-03
 49  0.00000000000000000e+00
 50 -1.44468728223862272e-03
 51  1.44806499260342919e-01
 52  0.00000000000000000e+00
 53  1.10752751947980038e-01
 54  3.92872486610909739e-03
 55  1.75837603350279259e-02
 56  0.00000000000000000e+00
 57  8.39863443477896314e-03
 58  0.00000000000000000e+00
 Sym= B1
 Ene=  2.04050496681127208e-01
 Spin= Alpha
 Occup=  0.00000000000000000e+00
  1  0.00000000000000000e+00
  2  0.00000000000000000e+00
  3  0.00000000000000000e+00
  4  0.00000000000000000e+00
  5  1.35646615788890340e-01
  6  0.00000000000000000e+00
  7  0.00000000000000000e+00
  8  2.01932811098512188e-01
  9  0.00000000000000000e+00
 10  0.00000000000000000e+00
 11  8.41254331432651381e-01
 12  0.00000000000000000e+00
 13  0.00000000000000000e+00
 14  0.00000000000000000e+00
 15  2.90006990941815311e-03
 16  0.00000000000000000e+00
 17  0.00000000000000000e+00
 18  0.00000000000000000e+00
 19  0.00000000000000000e+00
 20 -5.97879194333384364e-02
 21  0.00000000000000000e+00
 22  0.00000000000000000e+00
 23  0.00000000000000000e+00
 24  0.00000000000000000e+00
 25  8.02671502568971817e-04
 26  0.00000000000000000e+00
 27  0.00000000000000000e+00
 28  0.00000000000000000e+00
 29  2.75545382388432637e-03
 30  0.00000000000000000e+00
 31 -1.69458010695513889e-02
 32 -1.38148699016754001e-01
 33 -1.76693219121120237e+00
 34 -1.19279341601128373e-02
 35  0.00000000000000000e+00
 36  1.08438627105103321e-02
 37  1.34409299451565434e-01
 38  0.00000000000000000e+00
 39 -1.08630709022608143e-01
 40  6.81914925646316694e-04
 41  9.40934617373109621e-03
 42  0.00000000000000000e+00
 43 -8.98079067972768624e-03
 44  0.00000000000000000e+00
 45  1.69458010695513889e-02
 46  1.38148699016754001e-01
 47  1.76693219121120237e+00
 48 -1.19279341601128373e-02
 49  0.00000000000000000e+00
 50 -1.08438627105103321e-02
 51  1.34409299451565434e-01
 52  0.00000000000000000e+00
 53  1.08630709022608143e-01
 54 -6.81914925646316694e-04
 55  9.40934617373109621e-03
 56  0.00000000000000000e+00
 57  8.98079067972768624e-03
 58  0.00000000000000000e+00
 Sym= B1
 Ene=  5.44247152469507944e-01
 Spin= Alpha
 Occup=  0.00000000000000000e+00
  1  0.00000000000000000e+00
  2  0.00000000000000000e+00
  3  0.00000000000000000e+00
  4  0.00000000000000000e+00
  5  1.05341199129734928e-01
  6  0.00000000000000000e+00
  7  0.00000000000000000e+00
  8  2.81419435617181579e-01
  9  0.00000000000000000e+00
 10  0.00000000000000000e+00
 11  1.26352321494220976e+00
 12  0.00000000000000000e+00
 13  0.00000000000000000e+00
 14  0.00000000000000000e+00
 15  2.73685310570696977e-02
 16  0.00000000000000000e+00
 17  0.00000000000000000e+00
 18  0.00000000000000000e+00
 19  0.00000000000000000e+00
 20 -1.42936011748598935e-01
 21  0.00000000000000000e+00
 22  0.00000000000000000e+00
 23  0.00000000000000000e+00
 24  0.00000000000000000e+00
 25  1.51748805593432314e-02
 26  0.00000000000000000e+00
 27  0.00000000000000000e+00
 28  0.00000000000000000e+00
 29  1.58923308565816941e-02
 30  0.00000000000000000e+00
 31 -9.85835422207609335e-02
 32 -1.56347111795558558e+00
 33  5.83714517891705809e-01
 34  4.79690642781469001e-02
 35  0.00000000000000000e+00
 36 -3.03159559490889519e-02
 37  4.79727502958343308e-02
 38  0.00000000000000000e+00
 39  2.17466578322797789e-02
 40  5.10018687725137705e-03
 41  2.99759446045873811e-02
 42  0.00000000000000000e+00
 43 -1.53162453124344369e-02
 44  0.00000000000000000e+00
 45  9.85835422207609335e-02
 46  1.56347111795558558e+00
 47 -5.83714517891705809e-01
 48  4.79690642781469001e-02
 49  0.00000000000000000e+00
 50  3.03159559490889519e-02
 51  4.79727502958343308e-02
 52  0.00000000000000000e+00
 53 -2.17466578322797789e-02
 54 -5.10018687725137705e-03
 55  2.99759446045873811e-02
 56  0.00000000000000000e+00
 57  1.53162453124344369e-02
 58  0.00000000000000000e+00
 Sym= A1
 Ene=  6.02266565484680827e-01
 Spin= Alpha
 Occup=  0.00000000000000000e+00
  1  2.41093963646047578e-02
  2  2.01047525216952183e-01
  3  2.79673973623285645e-02
  4  7.88782321533143094e-01
  5  0.00000000000000000e+00
  6  0.00000000000000000e+00
  7 -9.15650650102672187e-02
  8  0.00000000000000000e+00
  9  0.00000000000000000e+00
 10 -1.58352440216498552e-01
 11  0.00000000000000000e+00
 12  0.00000000000000000e+00
 13 -6.93830216389942800e-01
 14  6.11296676081108693e-03
 15  0.00000000000000000e+00
 16  0.00000000000000000e+00
 17 -2.01528389487800885e-02
 18  0.00000000000000000e+00
 19 -1.05914155753426258e-02
 20  0.00000000000000000e+00
 21  0.00000000000000000e+00
 22  4.04662468675813375e-02
 23  0.00000000000000000e+00
 24  9.80787076557093976e-03
 25  0.00000000000000000e+00
 26  0.00000000000000000e+00
 27 -1.75721441384168765e-02
 28  0.00000000000000000e+00
 29  0.00000000000000000e+00
 30  0.00000000000000000e+00
 31 -8.10907998737721847e-02
 32 -1.45721477420647627e+00
 33  5.76165465671174770e-01
 34  3.16777951980346043e-02
 35  0.00000000000000000e+00
 36 -1.79303426159118616e-02
 37 -1.95242392739441301e-01
 38  0.00000000000000000e+00
 39 -7.29431034448127236e-02
 40 -1.31237329282185879e-02
 41  1.08964135814825381e-02
 42  0.00000000000000000e+00
 43 -9.33008167749744752e-03
 44  0.00000000000000000e+00
 45 -8.10907998737721847e-02
 46 -1.45721477420647627e+00
 47  5.76165465671174770e-01
 48 -3.16777951980346043e-02
 49  0.00000000000000000e+00
 50 -1.79303426159118616e-02
 51  1.95242392739441301e-01
 52  0.00000000000000000e+00
 53 -7.29431034448127236e-02
 54 -1.31237329282185879e-02
 55 -1.08964135814825381e-02
 56  0.00000000000000000e+00
 57 -9.33008167749744752e-03
 58  0.00000000000000000e+00
 Sym= A1
 Ene=  6.68221851247067566e-01
 Spin= Alpha
 Occup=  0.00000000000000000e+00
  1  3.50585081805002419e-02
  2  7.36663295506121557e-02
  3 -4.12917587400482983e-02
  4  4.63095461312968837e+00
  5  0.00000000000000000e+00
  6  0.00000000000000000e+00
  7  2.47322311413386259e-01
  8  0.00000000000000000e+00
  9  0.00000000000000000e+00
 10  1.05957654045828478e-01
 11  0.00000000000000000e+00
 12  0.00000000000000000e+00
 13 -2.66758623812626849e+00
 14 -1.62308732004355638e-02
 15  0.00000000000000000e+00
 16  0.00000000000000000e+00
 17 -2.24098692408089481e-02
 18  0.00000000000000000e+00
 19  8.64316404789983728e-02
 20  0.00000000000000000e+00
 21  0.00000000000000000e+00
 22  2.79820771200263885e-01
 23  0.00000000000000000e+00
 24  1.10600559303866992e-02
 25  0.00000000000000000e+00
 26  0.00000000000000000e+00
 27 -3.10906674717109539e-02
 28  0.00000000000000000e+00
 29  0.00000000000000000e+00
 30  0.00000000000000000e+00
 31  3.41856167777211534e-02
 32 -2.29363220724703032e+00
 33 -4.74666813507169216e-01
 34  2.33151354798764553e-02
 35  0.00000000000000000e+00
 36 -1.37694028797701786e-02
 37  9.55859066190268947e-01
 38  0.00000000000000000e+00
 39 -6.11111509392306296e-01
 40  3.65167166422021182e-03
 41  6.36253250711038831e-02
 42  0.00000000000000000e+00
 43 -5.19418654524101617e-02
 44  0.00000000000000000e+00
 45  3.41856167777211534e-02
 46 -2.29363220724703032e+00
 47 -4.74666813507169216e-01
 48 -2.33151354798764553e-02
 49  0.00000000000000000e+00
 50 -1.37694028797701786e-02
 51 -9.55859066190268947e-01
 52  0.00000000000000000e+00
 53 -6.11111509392306296e-01
 54  3.65167166422021182e-03
 55 -6.36253250711038831e-02
 56  0.00000000000000000e+00
 57 -5.19418654524101617e-02
 58  0.00000000000000000e+00
 Sym= B2
 Ene=  7.87392715553983824e-01
 Spin= Alpha
 Occup=  0.00000000000000000e+00
  1  0.00000000000000000e+00
  2  0.00000000000000000e+00
  3  0.00000000000000000e+00
  4  0.00000000000000000e+00
  5  0.00000000000000000e+00
  6  2.58522006030372897e-01
  7  0.00000000000000000e+00
  8  0.00000000000000000e+00
  9  7.72591245571094709e-01
 10  0.00000000000000000e+00
 11  0.00000000000000000e+00
 12 -1.17665635075153663e+00
 13  0.00000000000000000e+00
 14  0.00000000000000000e+00
 15  0.00000000000000000e+00
 16 -8.79977479028300723e-03
 17  0.00000000000000000e+00
 18  0.00000000000000000e+00
 19  0.00000000000000000e+00
 20  0.00000000000000000e+00
 21  3.63372099268918294e-02
 22  0.00000000000000000e+00
 23  0.00000000000000000e+00
 24  0.00000000000000000e+00
 25  0.00000000000000000e+00
 26 -2.87706318241074104e-03
 27  0.00000000000000000e+00
 28  0.00000000000000000e+00
 29  0.00000000000000000e+00
 30 -6.66475823501343385e-03
 31  0.00000000000000000e+00
 32  0.00000000000000000e+00
 33  0.00000000000000000e+00
 34  0.00000000000000000e+00
 35  1.23742210573221552e-02
 36  0.00000000000000000e+00
 37  0.00000000000000000e+00
 38 -7.45573997482902769e-03
 39  0.00000000000000000e+00
 40  0.00000000000000000e+00
 41  0.00000000000000000e+00
 42  1.39544675166674934e-02
 43  0.00000000000000000e+00
 44 -1.96833065853410129e-02
 45  0.00000000000000000e+00
 46  0.00000000000000000e+00
 47  0.00000000000000000e+00
 48  0.00000000000000000e+00
 49  1.23742210573221552e-02
 50  0.00000000000000000e+00
 51  0.00000000000000000e+00
 52 -7.45573997482902769e-03
 53  0.00000000000000000e+00
 54  0.00000000000000000e+00
 55  0.00000000000000000e+00
 56  1.39544675166674934e-02
 57  0.00000000000000000e+00
 58  1.96833065853410129e-02
 Sym= A1
 Ene=  8.00822486912629472e-01
 Spin= Alpha
 Occup=  0.00000000000000000e+00
  1  1.76416791735672963e-02
  2  1.23342028234074114e-01
  3  2.13616924647255582e-02
  4  6.15653457086529632e-01
  5  0.00000000000000000e+00
  6  0.00000000000000000e+00
  7 -5.48628958196291511e-02
  8  0.00000000000000000e+00
  9  0.00000000000000000e+00
 10 -1.49337142012788665e-01
 11  0.00000000000000000e+00
 12  0.00000000000000000e+00
 13 -1.31233667068930826e+00
 14 -3.66477639330165736e-02
 15  0.00000000000000000e+00
 16  0.00000000000000000e+00
 17  9.52065941074487811e-03
 18  0.00000000000000000e+00
 19  1.42534916812809498e-01
 20  0.00000000000000000e+00
 21  0.00000000000000000e+00
 22 -7.18157302801652186e-02
 23  0.00000000000000000e+00
 24 -1.63482779521732235e-02
 25  0.00000000000000000e+00
 26  0.00000000000000000e+00
 27 -1.87400539936721506e-03
 28  0.00000000000000000e+00
 29  0.00000000000000000e+00
 30  0.00000000000000000e+00
 31  9.23567299721696384e-03
 32 -9.32161295256822231e-01
 33  2.60559305454511059e-01
 34 -2.22465722343277265e-02
 35  0.00000000000000000e+00
 36 -3.74406093753786237e-02
 37  5.25156156817130126e-01
 38  0.00000000000000000e+00
 39  6.96217785299098391e-01
 40  4.35290326946191006e-02
 41 -2.62972518447098375e-02
 42  0.00000000000000000e+00
 43 -3.09112580137997292e-02
 44  0.00000000000000000e+00
 45  9.23567299721696384e-03
 46 -9.32161295256822231e-01
 47  2.60559305454511059e-01
 48  2.22465722343277265e-02
 49  0.00000000000000000e+00
 50 -3.74406093753786237e-02
 51 -5.25156156817130126e-01
 52  0.00000000000000000e+00
 53  6.96217785299098391e-01
 54  4.35290326946191006e-02
 55  2.62972518447098375e-02
 56  0.00000000000000000e+00
 57 -3.09112580137997292e-02
 58  0.00000000000000000e+00
 Sym= B1
 Ene=  8.05227355618780005e-01
 Spin= Alpha
 Occup=  0.00000000000000000e+00
  1  0.00000000000000000e+00
  2  0.00000000000000000e+00
  3  0.00000000000000000e+00
  4  0.00000000000000000e+00
  5  2.77052822027765988e-01
  6  0.00000000000000000e+00
  7  0.00000000000000000e+00
  8 -2.44581494900047956e-02
  9  0.00000000000000000e+00
 10  0.00000000000000000e+00
 11 -2.97180901384333929e+00
 12  0.00000000000000000e+00
 13  0.00000000000000000e+00
 14  0.00000000000000000e+00
 15 -2.52272232422771532e-02
 16  0.00000000000000000e+00
 17  0.00000000000000000e+00
 18  0.00000000000000000e+00
 19  0.00000000000000000e+00
 20  4.56456737662373824e-01
 21  0.00000000000000000e+00
 22  0.00000000000000000e+00
 23  0.00000000000000000e+00
 24  0.00000000000000000e+00
 25 -2.62473833821699996e-02
 26  0.00000000000000000e+00
 27  0.00000000000000000e+00
 28  0.00000000000000000e+00
 29 -2.09956021841134211e-02
 30  0.00000000000000000e+00
 31 -2.95897071999863190e-02
 32  1.65408536941068274e+00
 33  1.47638533736219912e+00
 34 -4.25640719714729734e-02
 35  0.00000000000000000e+00
 36  3.32334045894602595e-02
 37 -9.27152668597312157e-01
 38  0.00000000000000000e+00
 39  7.56628318262274391e-01
 40  1.14873581525179523e-03
 41 -9.12641181590767014e-02
 42  0.00000000000000000e+00
 43  6.09642578001132196e-02
 44  0.00000000000000000e+00
 45  2.95897071999863190e-02
 46 -1.65408536941068274e+00
 47 -1.47638533736219912e+00
 48 -4.25640719714729734e-02
 49  0.00000000000000000e+00
 50 -3.32334045894602595e-02
 51 -9.27152668597312157e-01
 52  0.00000000000000000e+00
 53 -7.56628318262274391e-01
 54 -1.14873581525179523e-03
 55 -9.12641181590767014e-02
 56  0.00000000000000000e+00
 57 -6.09642578001132196e-02
 58  0.00000000000000000e+00
 Sym= A2
 Ene=  8.61104849211367207e-01
 Spin= Alpha
 Occup=  0.00000000000000000e+00
  1  0.00000000000000000e+00
  2  0.00000000000000000e+00
  3  0.00000000000000000e+00
  4  0.00000000000000000e+00
  5  0.00000000000000000e+00
  6  0.00000000000000000e+00
  7  0.00000000000000000e+00
  8  0.00000000000000000e+00
  9  0.00000000000000000e+00
 10  0.00000000000000000e+00
 11  0.00000000000000000e+00
 12  0.00000000000000000e+00
 13  0.00000000000000000e+00
 14  0.00000000000000000e+00
 15  0.00000000000000000e+00
 16  0.00000000000000000e+00
 17  0.00000000000000000e+00
 18  2.74846325404375230e-02
 19  0.00000000000000000e+00
 20  0.00000000000000000e+00
 21  0.00000000000000000e+00
 22  0.00000000000000000e+00
 23 -3.22585436770636211e-02
 24  0.00000000000000000e+00
 25  0.00000000000000000e+00
 26  0.00000000000000000e+00
 27  0.00000000000000000e+00
 28  1.64251902904197396e-02
 29  0.00000000000000000e+00
 30  0.00000000000000000e+00
 31  0.00000000000000000e+00
 32  0.00000000000000000e+00
 33  0.00000000000000000e+00
 34  0.00000000000000000e+00
 35 -5.98615583292890496e-02
 36  0.00000000000000000e+00
 37  0.00000000000000000e+00
 38  8.48068220196560918e-01
 39  0.00000000000000000e+00
 40  0.00000000000000000e+00
 41  0.00000000000000000e+00
 42  2.55496342687325621e-02
 43  0.00000000000000000e+00
 44 -1.31948215469697618e-02
 45  0.00000000000000000e+00
 46  0.00000000000000000e+00
 47  0.00000000000000000e+00
 48  0.00000000000000000e+00
 49  5.98615583292890496e-02
 50  0.00000000000000000e+00
 51  0.00000000000000000e+00
 52 -8.48068220196560918e-01
 53  0.00000000000000000e+00
 54  0.00000000000000000e+00
 55  0.00000000000000000e+00
 56 -2.55496342687325621e-02
 57  0.00000000000000000e+00
 58 -1.31948215469697618e-02
 Sym= B2
 Ene=  9.55299573231102261e-01
 Spin= Alpha
 Occup=  0.00000000000000000e+00
  1  0.00000000000000000e+00
  2  0.00000000000000000e+00
  3  0.00000000000000000e+00
  4  0.00000000000000000e+00
  5  0.00000000000000000e+00
  6  2.54798063558213904e-02
  7  0.00000000000000000e+00
  8  0.00000000000000000e+00
  9  6.35627997477695161e-02
 10  0.00000000000000000e+00
 11  0.00000000000000000e+00
 12  1.13629207655548936e+00
 13  0.00000000000000000e+00
 14  0.00000000000000000e+00
 15  0.00000000000000000e+00
 16  2.41421293325479180e-02
 17  0.00000000000000000e+00
 18  0.00000000000000000e+00
 19  0.00000000000000000e+00
 20  0.00000000000000000e+00
 21 -3.45833180383941109e-03
 22  0.00000000000000000e+00
 23  0.00000000000000000e+00
 24  0.00000000000000000e+00
 25  0.00000000000000000e+00
 26  5.68017306182103283e-03
 27  0.00000000000000000e+00
 28  0.00000000000000000e+00
 29  0.00000000000000000e+00
 30  1.82536105727915329e-02
 31  0.00000000000000000e+00
 32  0.00000000000000000e+00
 33  0.00000000000000000e+00
 34  0.00000000000000000e+00
 35  7.26865031636621389e-02
 36  0.00000000000000000e+00
 37  0.00000000000000000e+00
 38 -1.00813827872025885e+00
 39  0.00000000000000000e+00
 40  0.00000000000000000e+00
 41  0.00000000000000000e+00
 42 -3.14227251841115015e-03
 43  0.00000000000000000e+00
 44  4.02629517542332296e-02
 45  0.00000000000000000e+00
 46  0.00000000000000000e+00
 47  0.00000000000000000e+00
 48  0.00000000000000000e+00
 49  7.26865031636621389e-02
 50  0.00000000000000000e+00
 51  0.00000000000000000e+00
 52 -1.00813827872025885e+00
 53  0.00000000000000000e+00
 54  0.00000000000000000e+00
 55  0.00000000000000000e+00
 56 -3.14227251841115015e-03
 57  0.00000000000000000e+00
 58 -4.02629517542332296e-02
 Sym= A1
 Ene=  1.13170903529972366e+00
 Spin= Alpha
 Occup=  0.00000000000000000e+00
  1  2.57550280506306073e-01
  2  8.33887133880117037e-01
  3  2.62317596771455552e-01
  4 -7.05615243687493443e+00
  5  0.00000000000000000e+00
  6  0.00000000000000000e+00
  7  5.34569352134447728e-02
  8  0.00000000000000000e+00
  9  0.00000000000000000e+00
 10  1.05765421928549408e+00
 11  0.00000000000000000e+00
 12  0.00000000000000000e+00
 13  1.70735917665618331e+00
 14 -5.98506825757592789e-04
 15  0.00000000000000000e+00
 16  0.00000000000000000e+00
 17  1.09598903289762455e-02
 18  0.00000000000000000e+00
 19  4.08352443390146633e-02
 20  0.00000000000000000e+00
 21  0.00000000000000000e+00
 22 -2.92932501180908744e-01
 23  0.00000000000000000e+00
 24 -4.15354536586778483e-02
 25  0.00000000000000000e+00
 26  0.00000000000000000e+00
 27  7.78461902557918695e-02
 28  0.00000000000000000e+00
 29  0.00000000000000000e+00
 30  0.00000000000000000e+00
 31 -2.68174916241824407e-02
 32  2.94679454667050056e+00
 33  6.11403667091215852e-01
 34 -7.81283478498958767e-02
 35  0.00000000000000000e+00