  Input file(s): H_wopos.qmc.in-wfj.xml 

=====================================================
                    QMCPACK 3.10.9

       (c) Copyright 2003-  QMCPACK developers

                    Please cite:
 J. Kim et al. J. Phys. Cond. Mat. 30 195901 (2018)
      https://doi.org/10.1088/1361-648X/aab9c3

  Git branch: multipartmultidetfast
  Last git commit: 749cc914e967d23c37e73c4bf85e85d07af883e5
  Last git commit date: Tue Feb 23 04:02:38 2021 -0500
  Last git commit subject: APP_ABORT -> throw std::runtime_error per #125
=====================================================
  Global options 

  Total number of MPI ranks = 1
  Number of MPI groups      = 1
  MPI group ID              = 0
  Number of ranks in group  = 1
  MPI ranks per node        = 1
  OMP 1st level threads     = 12
  OMP nested threading disabled or only 1 thread on the 2nd level

  Precision used in this calculation, see definitions in the manual:
  Base precision      = double
  Full precision      = double

  CPU only build
  Timer build option is enabled. Current timer level is coarse

  Input XML = H_wopos.qmc.in-wfj.xml

  Project = H_wopos
  date    = 2021-02-25 05:10:39 EST
  host    = positron


 Random Number
 -------------
  Offset for the random number seeds based on time: 927

  Range of prime numbers to use as seeds over processors and threads = 7283-7417


 Particle Set
 ------------
  Name: ion0  Offload : no

  All the species have the same mass 1
  Particle set size: 1


 Particle Set
 ------------
  Name: e  Offload : no

  All the species have the same mass 1
  Particle set size: 2


 Many-body wavefunction
 -------------------
  Name: psi0   Tasking: no

WARNING !!!!!!! Deprecated input style: creating SPO set inside determinantset. Support for this usage will soon be removed. SPO sets should be built outside.
WARNING !!!!!!! Deprecated input style: missing basisset element. LCAO needs an explicit basisset XML element. Fallback on loading an implicit one.
  LCAO: SoaAtomicBasisSet<MultiQuintic,1>
Reading BasisSet from HDF5 file:H_wopos.h5
<input node="atomicBasisSet" name="H" expandYlm="natural" angular="spherical" elementType="H" normalized="no" type="Numerical" expM="0" />
  AO BasisSet for H
   Spherical Harmonics contain (-1)^m factor
   Angular momentum m expanded as -l, ... ,l
   Grid is created by the input paremters in h5
    Using log grid ri = 1e-06 rf = 100 npts = 1001
   R(n,l,m,s) 0 0 0 0
   R(n,l,m,s) 1 0 0 0
   R(n,l,m,s) 2 0 0 0
   R(n,l,m,s) 3 0 0 0
   R(n,l,m,s) 4 0 0 0
Expanding Ylm as -l,-l+1,...,l-1,l
   Adding 1 spherical orbitals
   Adding 1 spherical orbitals
   Adding 1 spherical orbitals
   Adding 1 spherical orbitals
   Adding 1 spherical orbitals
  Setting cutoff radius 37910.2

   Maximum Angular Momentum  = 0
   Number of Radial functors = 5
   Basis size                = 5

  Created SPOSet builder named 'LCAOBSet' of type molecularorbital

   Single Slater determinant
   -------------------------


     Determinant
     -----------
      Name: updet   Spin group: 0   SPO name: updet

WARNING !!!!!!! Deprecated input style: creating SPO set inside determinantset. Support for this usage will soon be removed. SPO sets should be built outside.
      Create a new SPO set updet

     Single particle orbitals (SPO)
     ------------------------------
      Name:    Type: LCAO   Builder class name: LCAOrbitalBuilder

WARNING SPOSet object name not given in the input!
WARNING SPOSet object doesn't have a name.
      Setting delay_rank to default value 1
      Using rank-1 Sherman-Morrison Fahy update (SM1)
      Running on CPU.


     Determinant
     -----------
      Name: downdet   Spin group: 1   SPO name: downdet

WARNING !!!!!!! Deprecated input style: creating SPO set inside determinantset. Support for this usage will soon be removed. SPO sets should be built outside.
      Create a new SPO set downdet

     Single particle orbitals (SPO)
     ------------------------------
      Name:    Type: LCAO   Builder class name: LCAOrbitalBuilder

WARNING SPOSet object name not given in the input!
WARNING SPOSet object doesn't have a name.
      Setting delay_rank to default value 1
      Using rank-1 Sherman-Morrison Fahy update (SM1)
      Running on CPU.

  Added a fermionic WaveFunctionComponent SlaterDet

   Jastrow
   -------
    Name: J2   Type: Two-Body   Function: Bspline

    Radial function for species: u - d
     Number of parameters: 10
     Cusp: -0.5
     Cutoff radius: 10

     Name                        Value Type Recompute Use Index
     ---- ---------------------------- ---- --------- --- -----
     ud_0  (0.000000e+00,0.000000e+00)    1         1  ON     0
     ud_1  (0.000000e+00,0.000000e+00)    1         1  ON     1
     ud_2  (0.000000e+00,0.000000e+00)    1         1  ON     2
     ud_3  (0.000000e+00,0.000000e+00)    1         1  ON     3
     ud_4  (0.000000e+00,0.000000e+00)    1         1  ON     4
     ud_5  (0.000000e+00,0.000000e+00)    1         1  ON     5
     ud_6  (0.000000e+00,0.000000e+00)    1         1  ON     6
     ud_7  (0.000000e+00,0.000000e+00)    1         1  ON     7
     ud_8  (0.000000e+00,0.000000e+00)    1         1  ON     8
     ud_9  (0.000000e+00,0.000000e+00)    1         1  ON     9


   Jastrow
   -------
    Name: J1   Type: One-Body   Function: Bspline

    Radial function for element: H
     Number of parameters: 10
     Cusp: 0
     Cutoff radius: 10

     Name                        Value Type Recompute Use Index
     ---- ---------------------------- ---- --------- --- -----
     eH_0  (0.000000e+00,0.000000e+00)    1         1  ON     0
     eH_1  (0.000000e+00,0.000000e+00)    1         1  ON     1
     eH_2  (0.000000e+00,0.000000e+00)    1         1  ON     2
     eH_3  (0.000000e+00,0.000000e+00)    1         1  ON     3
     eH_4  (0.000000e+00,0.000000e+00)    1         1  ON     4
     eH_5  (0.000000e+00,0.000000e+00)    1         1  ON     5
     eH_6  (0.000000e+00,0.000000e+00)    1         1  ON     6
     eH_7  (0.000000e+00,0.000000e+00)    1         1  ON     7
     eH_8  (0.000000e+00,0.000000e+00)    1         1  ON     8
     eH_9  (0.000000e+00,0.000000e+00)    1         1  ON     9


   Jastrow
   -------
    Name: J3   Type: eeI   Function: polynomial

     Ion: H   electron-electron: u - u
      Number of parameters for e-e: 3, for e-I: 3
      Cutoff radius: 5

Expected 26 parameters, but found 0 in PolynomialFunctor3D.
        Name                        Value Type Recompute Use Index
      ------ ---------------------------- ---- --------- --- -----
       uuH_0  (0.000000e+00,0.000000e+00)    1         1  ON     0
       uuH_1  (0.000000e+00,0.000000e+00)    1         1  ON     1
       uuH_2  (0.000000e+00,0.000000e+00)    1         1  ON     2
       uuH_3  (0.000000e+00,0.000000e+00)    1         1  ON     3
       uuH_4  (0.000000e+00,0.000000e+00)    1         1  ON     4
       uuH_5  (0.000000e+00,0.000000e+00)    1         1  ON     5
       uuH_6  (0.000000e+00,0.000000e+00)    1         1  ON     6
       uuH_7  (0.000000e+00,0.000000e+00)    1         1  ON     7
       uuH_8  (0.000000e+00,0.000000e+00)    1         1  ON     8
       uuH_9  (0.000000e+00,0.000000e+00)    1         1  ON     9
      uuH_10  (0.000000e+00,0.000000e+00)    1         1  ON    10
      uuH_11  (0.000000e+00,0.000000e+00)    1         1  ON    11
      uuH_12  (0.000000e+00,0.000000e+00)    1         1  ON    12
      uuH_13  (0.000000e+00,0.000000e+00)    1         1  ON    13
      uuH_14  (0.000000e+00,0.000000e+00)    1         1  ON    14
      uuH_15  (0.000000e+00,0.000000e+00)    1         1  ON    15
      uuH_16  (0.000000e+00,0.000000e+00)    1         1  ON    16
      uuH_17  (0.000000e+00,0.000000e+00)    1         1  ON    17
      uuH_18  (0.000000e+00,0.000000e+00)    1         1  ON    18
      uuH_19  (0.000000e+00,0.000000e+00)    1         1  ON    19
      uuH_20  (0.000000e+00,0.000000e+00)    1         1  ON    20
      uuH_21  (0.000000e+00,0.000000e+00)    1         1  ON    21
      uuH_22  (0.000000e+00,0.000000e+00)    1         1  ON    22
      uuH_23  (0.000000e+00,0.000000e+00)    1         1  ON    23
      uuH_24  (0.000000e+00,0.000000e+00)    1         1  ON    24
      uuH_25  (0.000000e+00,0.000000e+00)    1         1  ON    25

     Ion: H   electron-electron: u - d
      Number of parameters for e-e: 3, for e-I: 3
      Cutoff radius: 5

Expected 26 parameters, but found 0 in PolynomialFunctor3D.
        Name                        Value Type Recompute Use Index
      ------ ---------------------------- ---- --------- --- -----
       udH_0  (0.000000e+00,0.000000e+00)    1         1  ON     0
       udH_1  (0.000000e+00,0.000000e+00)    1         1  ON     1
       udH_2  (0.000000e+00,0.000000e+00)    1         1  ON     2
       udH_3  (0.000000e+00,0.000000e+00)    1         1  ON     3
       udH_4  (0.000000e+00,0.000000e+00)    1         1  ON     4
       udH_5  (0.000000e+00,0.000000e+00)    1         1  ON     5
       udH_6  (0.000000e+00,0.000000e+00)    1         1  ON     6
       udH_7  (0.000000e+00,0.000000e+00)    1         1  ON     7
       udH_8  (0.000000e+00,0.000000e+00)    1         1  ON     8
       udH_9  (0.000000e+00,0.000000e+00)    1         1  ON     9
      udH_10  (0.000000e+00,0.000000e+00)    1         1  ON    10
      udH_11  (0.000000e+00,0.000000e+00)    1         1  ON    11
      udH_12  (0.000000e+00,0.000000e+00)    1         1  ON    12
      udH_13  (0.000000e+00,0.000000e+00)    1         1  ON    13
      udH_14  (0.000000e+00,0.000000e+00)    1         1  ON    14
      udH_15  (0.000000e+00,0.000000e+00)    1         1  ON    15
      udH_16  (0.000000e+00,0.000000e+00)    1         1  ON    16
      udH_17  (0.000000e+00,0.000000e+00)    1         1  ON    17
      udH_18  (0.000000e+00,0.000000e+00)    1         1  ON    18
      udH_19  (0.000000e+00,0.000000e+00)    1         1  ON    19
      udH_20  (0.000000e+00,0.000000e+00)    1         1  ON    20
      udH_21  (0.000000e+00,0.000000e+00)    1         1  ON    21
      udH_22  (0.000000e+00,0.000000e+00)    1         1  ON    22
      udH_23  (0.000000e+00,0.000000e+00)    1         1  ON    23
      udH_24  (0.000000e+00,0.000000e+00)    1         1  ON    24
      udH_25  (0.000000e+00,0.000000e+00)    1         1  ON    25

  QMCHamiltonian::addOperator Kinetic to H, physical Hamiltonian 

 Hamiltonian and observables
 ---------------------------
  Name: h0

  QMCHamiltonian::addOperator ElecElec to H, physical Hamiltonian 
QMCHamiltonian::addOperatorType added type coulomb named ElecElec
  CoulombAA for ion0 is not created.  Number of particles == 1 and nonPeriodic
  QMCHamiltonian::addOperator IonElec to H, physical Hamiltonian 
QMCHamiltonian::addOperatorType added type coulomb named IonElec

  QMCHamiltonian::add2WalkerProperty added
    3 to P::PropertyList 
    0 to P::Collectables 
    starting Index of the observables in P::PropertyList = 9
ParticleSetPool::randomize 1 ParticleSet.
<init source="ion0" target="e">
</init>
  Initialization Execution time = 0.007924 secs
=========================================================
 Summary of QMC systems 
=========================================================
ParticleSetPool has: 

  ParticleSet 'e' contains 2 particles :  u(1) d(1)

    u -3.8393069825e-01  5.6663738217e-01 -3.6000969497e-01
    d  4.8720269409e-01  4.5213696775e-01 -3.6246570142e-01

  Distance table for dissimilar particles (A-B):
    source: ion0  target: e
    Using structure-of-arrays (SoA) data layout
    Distance computations use open boundary conditions in 3D.

  Distance table for similar particles (A-A):
    source/target: e
    Using structure-of-arrays (SoA) data layout
    Distance computations use open boundary conditions in 3D.


  ParticleSet 'ion0' contains 1 particles :  H(1)

    H  0.0000000000e+00  0.0000000000e+00  0.0000000000e+00


  Hamiltonian h0
  Kinetic         Kinetic energy
  ElecElec        CoulombAB source=e

  IonElec         CoulombAA source/target ion0



=========================================================
  Start VMC
  File Root H_wopos.s000 append = no 
=========================================================
Resetting walkers
  Adding 12 walkers to 0 existing sets
  Total number of walkers: 1.2000000000e+01
  Total weight: 1.2000000000e+01
  Resetting Properties of the walkers 1 x 12

<vmc function="put">
  qmc_counter=0  my_counter=0
  time step      = 5.0000000000e-01
  blocks         = 20
  steps          = 50
  substeps       = 8
  current        = 0
  target samples = 0.0000000000e+00
  walkers/mpi    = 12

  stepsbetweensamples = 1050
  SpinMoves      = no
<parameter name="blocks">20</parameter>
<parameter name="blocks_between_recompute">0</parameter>
<parameter name="check_properties">100</parameter>
<parameter name="checkproperties">100</parameter>
<parameter name="current">0</parameter>
<parameter name="dmcwalkersperthread">0.0000000000e+00</parameter>
<parameter name="maxcpusecs">3.6000000000e+05</parameter>
<parameter name="record_configs">0</parameter>
<parameter name="record_walkers">1050</parameter>
<parameter name="recordconfigs">0</parameter>
<parameter name="recordwalkers">1050</parameter>
<parameter name="rewind">0</parameter>
<parameter name="samples">0.0000000000e+00</parameter>
<parameter name="samplesperthread">0.0000000000e+00</parameter>
<parameter name="spinmass">1.0000000000e+00</parameter>
<parameter name="spinmoves">no</parameter>
<parameter name="steps">50</parameter>
<parameter name="stepsbetweensamples">1050</parameter>
<parameter name="store_configs">0</parameter>
<parameter name="storeconfigs">0</parameter>
<parameter name="sub_steps">8</parameter>
<parameter name="substeps">8</parameter>
<parameter name="tau">5.0000000000e-01</parameter>
<parameter name="time_step">5.0000000000e-01</parameter>
<parameter name="timestep">5.0000000000e-01</parameter>
<parameter name="use_drift">no</parameter>
<parameter name="usedrift">no</parameter>
<parameter name="walkers">12</parameter>
<parameter name="warmup_steps">100</parameter>
<parameter name="warmupsteps">100</parameter>
  DumpConfig==false Nothing (configurations, state) will be saved.
  Walker Samples are dumped every 1050 steps.
</vmc>
  Set drift_modifier UNR parameter a = 1.0000000000e+00
  CloneManager::makeClones makes 12 clones for W/Psi/H.
  Cloning methods for both Psi and H are used
===== Memory Usage before cloning =====
Available memory on node 0, free + buffers : 21255 MB
Memory footprint by rank 0 on node 0       : 32 MB
==================================================
===== Memory Usage after cloning =====
Available memory on node 0, free + buffers : 21254 MB
Memory footprint by rank 0 on node 0       : 32 MB
==================================================
  Initial partition of walkers 0 1 2 3 4 5 6 7 8 9 10 11 12 

  Using Particle by Particle moves
  Walker moves without drift
  Total Sample Size   =0
  Walker distribution on root = 0 1 2 3 4 5 6 7 8 9 10 11 12 
===== Memory Usage after the buffer registration =====
Available memory on node 0, free + buffers : 21254 MB
Memory footprint by rank 0 on node 0       : 36 MB
==================================================
  Anonymous Buffer size per walker : 17408 Bytes.
MEMORY increase 0 MB VMC::resetRun
====================================================
  SimpleFixedNodeBranch::finalize after a VMC block
    QMC counter        = 0
    time step          = 0.5
    reference energy   = -0.493003
    reference variance = 0.935158
====================================================
  QMC Execution time = 6.2355e-02 secs
Loop execution max-interations = 4
BRANCH resetRun
  Continue with the same input as the previous block.
 SimpleFixedNodeBranch::resetRun detected changes in <parameter>'s 
 BranchMode : 0000001100 0000001100
 iParam (old): 100               1                 0                 0                 12                12                1                 0                 
 iParam (new): 100               1                 0                 0                 12                12                1                 0                 
 vParam (old): 5.0000000000e-01  5.0000000000e-01  -4.9300331180e-01 -4.9300331180e-01 1.0000000000e+00  1.0000000000e+00  1.0000000000e+00  1.0000000000e+00  9.3515837769e-01  -4.9300331180e-01 1.0000000000e+00  1.0000000000e+00  1.0000000000e+01  1.0000000000e+00  1.0000000000e+00  1.0000000000e+00  1.0000000000e+00  
 vParam (new): 5.0000000000e-01  5.0000000000e-01  -4.9300331180e-01 -4.9300331180e-01 1.0000000000e+00  1.0000000000e+00  1.0000000000e+00  1.0000000000e+00  9.3515837769e-01  -4.9300331180e-01 1.0000000000e+00  1.0000000000e+00  1.0000000000e+01  1.0000000000e+00  1.0000000000e+00  1.0000000000e+00  1.0000000000e+00  

=========================================================
  Start QMCFixedSampleLinearOptimize
  File Root H_wopos.s001 append = no 
=========================================================
  Skip QMCDriver::putQMCInfo 
  Resetting Properties of the walkers 1 x 12

=========================================================
  Start VMC
  File Root H_wopos.s001 append = no 
=========================================================
Resetting walkers
  Using the current 12 walkers.
  Total number of walkers: 1.2000000000e+01
  Total weight: 1.2000000000e+01
  Resetting Properties of the walkers 1 x 12

<vmc function="put">
  qmc_counter=0  my_counter=0
  time step      = 5.0000000000e-01
  blocks         = 20
  steps          = 67
  substeps       = 4
  current        = 0
  target samples = 1.6000000000e+04
  walkers/mpi    = 12

  stepsbetweensamples = 1
  SpinMoves      = no
<parameter name="blocks">20</parameter>
<parameter name="blocks_between_recompute">0</parameter>
<parameter name="check_properties">100</parameter>
<parameter name="checkproperties">100</parameter>
<parameter name="current">0</parameter>
<parameter name="dmcwalkersperthread">1.3340000000e+03</parameter>
<parameter name="maxcpusecs">3.6000000000e+05</parameter>
<parameter name="record_configs">0</parameter>
<parameter name="record_walkers">1</parameter>
<parameter name="recordconfigs">0</parameter>
<parameter name="recordwalkers">1</parameter>
<parameter name="rewind">0</parameter>
<parameter name="samples">1.6000000000e+04</parameter>
<parameter name="samplesperthread">1.3340000000e+03</parameter>
<parameter name="spinmass">1.0000000000e+00</parameter>
<parameter name="spinmoves">no</parameter>
<parameter name="steps">67</parameter>
<parameter name="stepsbetweensamples">1</parameter>
<parameter name="store_configs">0</parameter>
<parameter name="storeconfigs">0</parameter>
<parameter name="sub_steps">4</parameter>
<parameter name="substeps">4</parameter>
<parameter name="tau">5.0000000000e-01</parameter>
<parameter name="time_step">5.0000000000e-01</parameter>
<parameter name="timestep">5.0000000000e-01</parameter>
<parameter name="use_drift">no</parameter>
<parameter name="usedrift">no</parameter>
<parameter name="walkers">12</parameter>
<parameter name="warmup_steps">100</parameter>
<parameter name="warmupsteps">100</parameter>
  DumpConfig==false Nothing (configurations, state) will be saved.
  Walker Samples are dumped every 1 steps.
</vmc>
  Set drift_modifier UNR parameter a = 1.0000000000e+00
 Using QMCCostFunction::QMCCostFunction
 Using Default Cost Function: Cost = <|E-E_ff|^2>
  Set drift_modifier UNR parameter a = 1.0000000000e+00
  EstimatorManagerBase::add replace LocalEnergy estimator.
<optimization-report>
<vmc stage="main" blocks="20">
  Cannot make clones again. Use existing 12 clones
  Initial partition of walkers 0 1 2 3 4 5 6 7 8 9 10 11 12 

  Using Particle by Particle moves
  Walker moves without drift
  Total Sample Size   =16008
  Walker distribution on root = 0 1 2 3 4 5 6 7 8 9 10 11 12 
===== Memory Usage after the buffer registration =====
Available memory on node 0, free + buffers : 21254 MB
Memory footprint by rank 0 on node 0       : 36 MB
==================================================
  Anonymous Buffer size per walker : 17408 Bytes.
MEMORY increase 0 MB VMC::resetRun
====================================================
  SimpleFixedNodeBranch::finalize after a VMC block
    QMC counter        = 0
    time step          = 0.5
    reference energy   = -0.485166
    reference variance = 0.102645
====================================================
  Execution time = 4.6507e-02
</vmc>
<opt stage="setup">
  <log>
   Reading configurations from h5FileRoot H_wopos.s001
  QMCCostFunction is created with 12 threads.
  Using Nonlocal PP in Opt: no
   Number of samples loaded to each thread : 1334 1334 1334 1334 1334 1334 1334 1334 1334 1334 1334 1334 
  VMC Eavg = -4.8511e-01
  VMC Evar = 1.0274e-01
  Total weights = 1.6008e+04
  Execution time = 2.1676e-02
  </log>
</opt>
<opt stage="main" walkers="16008">
  <log>

*****************************************
Building overlap and Hamiltonian matrices
*****************************************

Among totally 72 optimized parameters, largest LM parameter change : 2.0030e-01 at parameter 1

******************************************************************************
Init Cost =  -4.2632e-01    New Cost =  -4.5350e-01  Delta Cost =  -2.7180e-02
******************************************************************************

The new set of parameters is valid. Updating the trial wave function!

*****************************************************************************
Applying the update for shift_i =   1.0000e-02     and shift_s =   2.5000e-01
*****************************************************************************
  Execution time = 1.5939e-01
  </log>
  <optVariables href="H_wopos.s001.opt.xml">
  ud_0  (1.844034e-01,0.000000e+00) 1 1  ON 0
  ud_1  (2.003028e-01,0.000000e+00) 1 1  ON 1
  ud_2  (8.749774e-02,0.000000e+00) 1 1  ON 2
  ud_3  (7.508999e-03,0.000000e+00) 1 1  ON 3
  ud_4 (-4.685796e-02,0.000000e+00) 1 1  ON 4
  ud_5 (-7.339353e-02,0.000000e+00) 1 1  ON 5
  ud_6 (-8.287345e-02,0.000000e+00) 1 1  ON 6
  ud_7 (-7.735432e-02,0.000000e+00) 1 1  ON 7
  ud_8 (-6.405319e-02,0.000000e+00) 1 1  ON 8
  ud_9 (-4.735601e-02,0.000000e+00) 1 1  ON 9
  eH_0 (-1.743489e-01,0.000000e+00) 1 1  ON 10
  eH_1 (-1.134794e-01,0.000000e+00) 1 1  ON 11
  eH_2 (-3.432046e-02,0.000000e+00) 1 1  ON 12
  eH_3  (7.853994e-04,0.000000e+00) 1 1  ON 13
  eH_4  (5.105603e-02,0.000000e+00) 1 1  ON 14
  eH_5  (5.596565e-02,0.000000e+00) 1 1  ON 15
  eH_6  (5.727342e-02,0.000000e+00) 1 1  ON 16
  eH_7  (4.861641e-02,0.000000e+00) 1 1  ON 17
  eH_8  (3.648327e-02,0.000000e+00) 1 1  ON 18
  eH_9  (2.035439e-02,0.000000e+00) 1 1  ON 19
 uuH_0  (0.000000e+00,0.000000e+00) 1 1  ON 20
 uuH_1  (0.000000e+00,0.000000e+00) 1 1  ON 21
 uuH_2  (0.000000e+00,0.000000e+00) 1 1  ON 22
 uuH_3  (0.000000e+00,0.000000e+00) 1 1  ON 23
 uuH_4  (0.000000e+00,0.000000e+00) 1 1  ON 24
 uuH_5  (0.000000e+00,0.000000e+00) 1 1  ON 25
 uuH_6  (0.000000e+00,0.000000e+00) 1 1  ON 26
 uuH_7  (0.000000e+00,0.000000e+00) 1 1  ON 27
 uuH_8  (0.000000e+00,0.000000e+00) 1 1  ON 28
 uuH_9  (0.000000e+00,0.000000e+00) 1 1  ON 29
uuH_10  (0.000000e+00,0.000000e+00) 1 1  ON 30
uuH_11  (0.000000e+00,0.000000e+00) 1 1  ON 31
uuH_12  (0.000000e+00,0.000000e+00) 1 1  ON 32
uuH_13  (0.000000e+00,0.000000e+00) 1 1  ON 33
uuH_14  (0.000000e+00,0.000000e+00) 1 1  ON 34
uuH_15  (0.000000e+00,0.000000e+00) 1 1  ON 35
uuH_16  (0.000000e+00,0.000000e+00) 1 1  ON 36
uuH_17  (0.000000e+00,0.000000e+00) 1 1  ON 37
uuH_18  (0.000000e+00,0.000000e+00) 1 1  ON 38
uuH_19  (0.000000e+00,0.000000e+00) 1 1  ON 39
uuH_20  (0.000000e+00,0.000000e+00) 1 1  ON 40
uuH_21  (0.000000e+00,0.000000e+00) 1 1  ON 41
uuH_22  (0.000000e+00,0.000000e+00) 1 1  ON 42
uuH_23  (0.000000e+00,0.000000e+00) 1 1  ON 43
uuH_24  (0.000000e+00,0.000000e+00) 1 1  ON 44
uuH_25  (0.000000e+00,0.000000e+00) 1 1  ON 45
 udH_0  (4.879197e-04,0.000000e+00) 1 1  ON 46
 udH_1 (-7.288472e-05,0.000000e+00) 1 1  ON 47
 udH_2 (-6.976599e-03,0.000000e+00) 1 1  ON 48
 udH_3  (5.550222e-03,0.000000e+00) 1 1  ON 49
 udH_4  (7.013162e-03,0.000000e+00) 1 1  ON 50
 udH_5  (1.975447e-03,0.000000e+00) 1 1  ON 51
 udH_6 (-1.066139e-04,0.000000e+00) 1 1  ON 52
 udH_7 (-8.361636e-03,0.000000e+00) 1 1  ON 53
 udH_8  (4.675701e-04,0.000000e+00) 1 1  ON 54
 udH_9 (-3.113463e-04,0.000000e+00) 1 1  ON 55
udH_10  (7.013651e-03,0.000000e+00) 1 1  ON 56
udH_11 (-5.421732e-03,0.000000e+00) 1 1  ON 57
udH_12 (-5.015876e-04,0.000000e+00) 1 1  ON 58
udH_13 (-1.765170e-03,0.000000e+00) 1 1  ON 59
udH_14  (8.882582e-03,0.000000e+00) 1 1  ON 60
udH_15 (-2.207243e-03,0.000000e+00) 1 1  ON 61
udH_16  (4.677918e-03,0.000000e+00) 1 1  ON 62
udH_17  (8.914683e-03,0.000000e+00) 1 1  ON 63
udH_18 (-1.688783e-03,0.000000e+00) 1 1  ON 64
udH_19 (-2.003524e-03,0.000000e+00) 1 1  ON 65
udH_20 (-3.941871e-03,0.000000e+00) 1 1  ON 66
udH_21 (-5.234617e-03,0.000000e+00) 1 1  ON 67
udH_22  (4.450597e-03,0.000000e+00) 1 1  ON 68
udH_23  (1.073746e-02,0.000000e+00) 1 1  ON 69
udH_24 (-7.124315e-04,0.000000e+00) 1 1  ON 70
udH_25 (-2.062665e-03,0.000000e+00) 1 1  ON 71
  </optVariables>
   Restore the number of walkers to 12, removing 0 walkers.
</opt>
</optimization-report>
  QMC Execution time = 0.2283 secs
BRANCH resetRun
  Continue with the same input as the previous block.
 SimpleFixedNodeBranch::resetRun detected changes in <parameter>'s 
 BranchMode : 0000001100 0000001100
 iParam (old):                100                 1                 1                 0                12                12                 1                 0
 iParam (new):                100                 1                 1                 0                12                12                 1                 0
 vParam (old):                0.5               0.5     -0.4930033118     -0.4930033118                 1                 1                 1                 1      0.9351583777     -0.4930033118                 1                 1                10                 1                 1                 1                 1
 vParam (new):                0.5               0.5     -0.4930033118     -0.4930033118                 1                 1                 1                 1      0.9351583777     -0.4930033118                 1                 1                10                 1                 1                 1                 1

=========================================================
  Start QMCFixedSampleLinearOptimize
  File Root H_wopos.s002 append = no 
=========================================================
  Skip QMCDriver::putQMCInfo 
  Resetting Properties of the walkers 1 x 12

=========================================================
  Start VMC
  File Root H_wopos.s002 append = no 
=========================================================
Using existing walkers 
  Resetting Properties of the walkers 1 x 12

<vmc function="put">
  qmc_counter=1  my_counter=0
  time step      = 0.5
  blocks         = 20
  steps          = 67
  substeps       = 4
  current        = 0
  target samples = 16000
  walkers/mpi    = 12

  stepsbetweensamples = 1
  SpinMoves      = no
<parameter name="blocks">20</parameter>
<parameter name="blocks_between_recompute">0</parameter>
<parameter name="check_properties">100</parameter>
<parameter name="checkproperties">100</parameter>
<parameter name="current">0</parameter>
<parameter name="dmcwalkersperthread">1334</parameter>
<parameter name="maxcpusecs">360000</parameter>
<parameter name="record_configs">0</parameter>
<parameter name="record_walkers">1</parameter>
<parameter name="recordconfigs">0</parameter>
<parameter name="recordwalkers">1</parameter>
<parameter name="rewind">0</parameter>
<parameter name="samples">16000</parameter>
<parameter name="samplesperthread">1334</parameter>
<parameter name="spinmass">1</parameter>
<parameter name="spinmoves">no</parameter>
<parameter name="steps">67</parameter>
<parameter name="stepsbetweensamples">1</parameter>
<parameter name="store_configs">0</parameter>
<parameter name="storeconfigs">0</parameter>
<parameter name="sub_steps">4</parameter>
<parameter name="substeps">4</parameter>
<parameter name="tau">0.5</parameter>
<parameter name="time_step">0.5</parameter>
<parameter name="timestep">0.5</parameter>
<parameter name="use_drift">no</parameter>
<parameter name="usedrift">no</parameter>
<parameter name="walkers">1</parameter>
<parameter name="warmup_steps">100</parameter>
<parameter name="warmupsteps">100</parameter>
  DumpConfig==false Nothing (configurations, state) will be saved.
  Walker Samples are dumped every 1 steps.
</vmc>
    Restarting, cummulative properties:
      energy     = -0.4851655593
      variance   = 0
      r2accepted = 1e-10
      r2proposed = 1e-10
  Set drift_modifier UNR parameter a = 1
 Using QMCCostFunction::QMCCostFunction
 Using Default Cost Function: Cost = <|E-E_ff|^2>
  Set drift_modifier UNR parameter a = 1.0000000000e+00
  EstimatorManagerBase::add replace LocalEnergy estimator.
<optimization-report>
<vmc stage="main" blocks="20">
  Cannot make clones again. Use existing 12 clones
  Initial partition of walkers 0 1 2 3 4 5 6 7 8 9 10 11 12 

  Using Particle by Particle moves
  Walker moves without drift
  Total Sample Size   =16008
  Walker distribution on root = 0 1 2 3 4 5 6 7 8 9 10 11 12 
===== Memory Usage after the buffer registration =====
Available memory on node 0, free + buffers : 21234 MB
Memory footprint by rank 0 on node 0       : 78 MB
==================================================
  Anonymous Buffer size per walker : 17408 Bytes.
MEMORY increase 0 MB VMC::resetRun
====================================================
  SimpleFixedNodeBranch::finalize after a VMC block
    QMC counter        = 1
    time step          = 0.5
    reference energy   = -0.504783
    reference variance = 0.0370402
====================================================
  Execution time = 4.7083e-02
</vmc>
<opt stage="setup">
  <log>
   Reading configurations from h5FileRoot H_wopos.s002
  QMCCostFunction is created with 12 threads.
  Using Nonlocal PP in Opt: no
   Number of samples loaded to each thread : 1334 1334 1334 1334 1334 1334 1334 1334 1334 1334 1334 1334 
  VMC Eavg = -5.0485e-01
  VMC Evar = 3.6889e-02
  Total weights = 1.6008e+04
  Execution time = 2.1187e-02
  </log>
</opt>
<opt stage="main" walkers="16008">
  <log>

*****************************************
Building overlap and Hamiltonian matrices
*****************************************

Among totally 72 optimized parameters, largest LM parameter change : 1.6312e-01 at parameter 1

******************************************************************************
Init Cost =  -4.5067e-01    New Cost =  -4.5867e-01  Delta Cost =  -7.9920e-03
******************************************************************************

The new set of parameters is valid. Updating the trial wave function!

*****************************************************************************
Applying the update for shift_i =   1.0000e-02     and shift_s =   6.2500e-02
*****************************************************************************
  Execution time = 1.1056e-01
  </log>
  <optVariables href="H_wopos.s002.opt.xml">
  ud_0  (3.258357e-01,0.000000e+00) 1 1  ON 0
  ud_1  (3.634235e-01,0.000000e+00) 1 1  ON 1
  ud_2  (1.947921e-01,0.000000e+00) 1 1  ON 2
  ud_3  (4.847377e-02,0.000000e+00) 1 1  ON 3
  ud_4 (-7.800002e-02,0.000000e+00) 1 1  ON 4
  ud_5 (-1.480788e-01,0.000000e+00) 1 1  ON 5
  ud_6 (-1.773078e-01,0.000000e+00) 1 1  ON 6
  ud_7 (-1.780942e-01,0.000000e+00) 1 1  ON 7
  ud_8 (-1.441364e-01,0.000000e+00) 1 1  ON 8
  ud_9 (-1.003327e-01,0.000000e+00) 1 1  ON 9
  eH_0 (-2.950917e-01,0.000000e+00) 1 1  ON 10
  eH_1 (-2.395228e-01,0.000000e+00) 1 1  ON 11
  eH_2 (-1.006417e-01,0.000000e+00) 1 1  ON 12
  eH_3 (-1.115114e-02,0.000000e+00) 1 1  ON 13
  eH_4  (7.145612e-02,0.000000e+00) 1 1  ON 14
  eH_5  (1.056937e-01,0.000000e+00) 1 1  ON 15
  eH_6  (1.159482e-01,0.000000e+00) 1 1  ON 16
  eH_7  (9.722629e-02,0.000000e+00) 1 1  ON 17
  eH_8  (7.599333e-02,0.000000e+00) 1 1  ON 18
  eH_9  (5.226562e-02,0.000000e+00) 1 1  ON 19
 uuH_0  (0.000000e+00,0.000000e+00) 1 1  ON 20
 uuH_1  (0.000000e+00,0.000000e+00) 1 1  ON 21
 uuH_2  (0.000000e+00,0.000000e+00) 1 1  ON 22
 uuH_3  (0.000000e+00,0.000000e+00) 1 1  ON 23
 uuH_4  (0.000000e+00,0.000000e+00) 1 1  ON 24
 uuH_5  (0.000000e+00,0.000000e+00) 1 1  ON 25
 uuH_6  (0.000000e+00,0.000000e+00) 1 1  ON 26
 uuH_7  (0.000000e+00,0.000000e+00) 1 1  ON 27
 uuH_8  (0.000000e+00,0.000000e+00) 1 1  ON 28
 uuH_9  (0.000000e+00,0.000000e+00) 1 1  ON 29
uuH_10  (0.000000e+00,0.000000e+00) 1 1  ON 30
uuH_11  (0.000000e+00,0.000000e+00) 1 1  ON 31
uuH_12  (0.000000e+00,0.000000e+00) 1 1  ON 32
uuH_13  (0.000000e+00,0.000000e+00) 1 1  ON 33
uuH_14  (0.000000e+00,0.000000e+00) 1 1  ON 34
uuH_15  (0.000000e+00,0.000000e+00) 1 1  ON 35
uuH_16  (0.000000e+00,0.000000e+00) 1 1  ON 36
uuH_17  (0.000000e+00,0.000000e+00) 1 1  ON 37
uuH_18  (0.000000e+00,0.000000e+00) 1 1  ON 38
uuH_19  (0.000000e+00,0.000000e+00) 1 1  ON 39
uuH_20  (0.000000e+00,0.000000e+00) 1 1  ON 40
uuH_21  (0.000000e+00,0.000000e+00) 1 1  ON 41
uuH_22  (0.000000e+00,0.000000e+00) 1 1  ON 42
uuH_23  (0.000000e+00,0.000000e+00) 1 1  ON 43
uuH_24  (0.000000e+00,0.000000e+00) 1 1  ON 44
uuH_25  (0.000000e+00,0.000000e+00) 1 1  ON 45
 udH_0  (5.678907e-04,0.000000e+00) 1 1  ON 46
 udH_1 (-2.138300e-03,0.000000e+00) 1 1  ON 47
 udH_2 (-7.012545e-03,0.000000e+00) 1 1  ON 48
 udH_3  (7.740017e-03,0.000000e+00) 1 1  ON 49
 udH_4  (9.615208e-03,0.000000e+00) 1 1  ON 50
 udH_5  (3.341515e-03,0.000000e+00) 1 1  ON 51
 udH_6 (-6.618414e-03,0.000000e+00) 1 1  ON 52
 udH_7 (-2.486517e-02,0.000000e+00) 1 1  ON 53
 udH_8  (5.954451e-03,0.000000e+00) 1 1  ON 54
 udH_9  (4.722646e-03,0.000000e+00) 1 1  ON 55
udH_10  (1.108421e-02,0.000000e+00) 1 1  ON 56
udH_11 (-4.259013e-03,0.000000e+00) 1 1  ON 57
udH_12 (-5.356794e-03,0.000000e+00) 1 1  ON 58
udH_13  (1.158452e-03,0.000000e+00) 1 1  ON 59
udH_14  (6.776292e-03,0.000000e+00) 1 1  ON 60
udH_15 (-2.812889e-05,0.000000e+00) 1 1  ON 61
udH_16 (-6.573931e-04,0.000000e+00) 1 1  ON 62
udH_17  (8.888587e-03,0.000000e+00) 1 1  ON 63
udH_18  (4.609916e-03,0.000000e+00) 1 1  ON 64
udH_19  (3.944200e-03,0.000000e+00) 1 1  ON 65
udH_20 (-9.632405e-03,0.000000e+00) 1 1  ON 66
udH_21 (-3.862892e-03,0.000000e+00) 1 1  ON 67
udH_22  (1.455669e-03,0.000000e+00) 1 1  ON 68
udH_23  (2.100176e-02,0.000000e+00) 1 1  ON 69
udH_24 (-4.468378e-03,0.000000e+00) 1 1  ON 70
udH_25 (-1.368590e-04,0.000000e+00) 1 1  ON 71
  </optVariables>
   Restore the number of walkers to 12, removing 0 walkers.
</opt>
</optimization-report>
  QMC Execution time = 0.1795 secs
BRANCH resetRun
  Continue with the same input as the previous block.
 SimpleFixedNodeBranch::resetRun detected changes in <parameter>'s 
 BranchMode : 0000001100 0000001100
 iParam (old):                100                 1                 2                 0                12                12                 1                 0
 iParam (new):                100                 1                 2                 0                12                12                 1                 0
 vParam (old):                0.5               0.5     -0.4930033118     -0.4930033118                 1                 1                 1                 1      0.9351583777     -0.4930033118                 1                 1                10                 1                 1                 1                 1
 vParam (new):                0.5               0.5     -0.4930033118     -0.4930033118                 1                 1                 1                 1      0.9351583777     -0.4930033118                 1                 1                10                 1                 1                 1                 1

=========================================================
  Start QMCFixedSampleLinearOptimize
  File Root H_wopos.s003 append = no 
=========================================================
  Skip QMCDriver::putQMCInfo 
  Resetting Properties of the walkers 1 x 12

=========================================================
  Start VMC
  File Root H_wopos.s003 append = no 
=========================================================
Using existing walkers 
  Resetting Properties of the walkers 1 x 12

<vmc function="put">
  qmc_counter=2  my_counter=0
  time step      = 0.5
  blocks         = 20
  steps          = 67
  substeps       = 4
  current        = 0
  target samples = 16000
  walkers/mpi    = 12

  stepsbetweensamples = 1
  SpinMoves      = no
<parameter name="blocks">20</parameter>
<parameter name="blocks_between_recompute">0</parameter>
<parameter name="check_properties">100</parameter>
<parameter name="checkproperties">100</parameter>
<parameter name="current">0</parameter>
<parameter name="dmcwalkersperthread">1334</parameter>
<parameter name="maxcpusecs">360000</parameter>
<parameter name="record_configs">0</parameter>
<parameter name="record_walkers">1</parameter>
<parameter name="recordconfigs">0</parameter>
<parameter name="recordwalkers">1</parameter>
<parameter name="rewind">0</parameter>
<parameter name="samples">16000</parameter>
<parameter name="samplesperthread">1334</parameter>
<parameter name="spinmass">1</parameter>
<parameter name="spinmoves">no</parameter>
<parameter name="steps">67</parameter>
<parameter name="stepsbetweensamples">1</parameter>
<parameter name="store_configs">0</parameter>
<parameter name="storeconfigs">0</parameter>
<parameter name="sub_steps">4</parameter>
<parameter name="substeps">4</parameter>
<parameter name="tau">0.5</parameter>
<parameter name="time_step">0.5</parameter>
<parameter name="timestep">0.5</parameter>
<parameter name="use_drift">no</parameter>
<parameter name="usedrift">no</parameter>
<parameter name="walkers">1</parameter>
<parameter name="warmup_steps">100</parameter>
<parameter name="warmupsteps">100</parameter>
  DumpConfig==false Nothing (configurations, state) will be saved.
  Walker Samples are dumped every 1 steps.
</vmc>
    Restarting, cummulative properties:
      energy     = -0.4949744384
      variance   = 0
      r2accepted = 1e-10
      r2proposed = 1e-10
  Set drift_modifier UNR parameter a = 1
 Using QMCCostFunction::QMCCostFunction
 Using Default Cost Function: Cost = <|E-E_ff|^2>
  Set drift_modifier UNR parameter a = 1.0000000000e+00
  EstimatorManagerBase::add replace LocalEnergy estimator.
<optimization-report>
<vmc stage="main" blocks="20">
  Cannot make clones again. Use existing 12 clones
  Initial partition of walkers 0 1 2 3 4 5 6 7 8 9 10 11 12 

  Using Particle by Particle moves
  Walker moves without drift
  Total Sample Size   =16008
  Walker distribution on root = 0 1 2 3 4 5 6 7 8 9 10 11 12 
===== Memory Usage after the buffer registration =====
Available memory on node 0, free + buffers : 21222 MB
Memory footprint by rank 0 on node 0       : 80 MB
==================================================
  Anonymous Buffer size per walker : 17408 Bytes.
MEMORY increase 0 MB VMC::resetRun
====================================================
  SimpleFixedNodeBranch::finalize after a VMC block
    QMC counter        = 2
    time step          = 0.5
    reference energy   = -0.518845
    reference variance = 0.0447131
====================================================
  Execution time = 5.0565e-02
</vmc>
<opt stage="setup">
  <log>
   Reading configurations from h5FileRoot H_wopos.s003
  QMCCostFunction is created with 12 threads.
  Using Nonlocal PP in Opt: no
   Number of samples loaded to each thread : 1334 1334 1334 1334 1334 1334 1334 1334 1334 1334 1334 1334 
  VMC Eavg = -5.1889e-01
  VMC Evar = 4.4753e-02
  Total weights = 1.6008e+04
  Execution time = 1.7789e-02
  </log>
</opt>
<opt stage="main" walkers="16008">
  <log>

*****************************************
Building overlap and Hamiltonian matrices
*****************************************

Among totally 72 optimized parameters, largest LM parameter change : 1.2066e-01 at parameter 0

******************************************************************************
Init Cost =  -4.6253e-01    New Cost =  -4.6494e-01  Delta Cost =  -2.4119e-03
******************************************************************************

The new set of parameters is valid. Updating the trial wave function!

*****************************************************************************
Applying the update for shift_i =   1.0000e-02     and shift_s =   1.5625e-02
*****************************************************************************
  Execution time = 1.1112e-01
  </log>
  <optVariables href="H_wopos.s003.opt.xml">
  ud_0  (4.464954e-01,0.000000e+00) 1 1  ON 0
  ud_1  (4.721970e-01,0.000000e+00) 1 1  ON 1
  ud_2  (2.631863e-01,0.000000e+00) 1 1  ON 2
  ud_3  (9.212196e-02,0.000000e+00) 1 1  ON 3
  ud_4 (-6.133317e-02,0.000000e+00) 1 1  ON 4
  ud_5 (-1.697770e-01,0.000000e+00) 1 1  ON 5
  ud_6 (-2.255121e-01,0.000000e+00) 1 1  ON 6
  ud_7 (-2.365579e-01,0.000000e+00) 1 1  ON 7
  ud_8 (-1.989213e-01,0.000000e+00) 1 1  ON 8
  ud_9 (-1.454116e-01,0.000000e+00) 1 1  ON 9
  eH_0 (-3.658101e-01,0.000000e+00) 1 1  ON 10
  eH_1 (-2.726939e-01,0.000000e+00) 1 1  ON 11
  eH_2 (-1.154817e-01,0.000000e+00) 1 1  ON 12
  eH_3  (1.026063e-02,0.000000e+00) 1 1  ON 13
  eH_4  (1.029078e-01,0.000000e+00) 1 1  ON 14
  eH_5  (1.332715e-01,0.000000e+00) 1 1  ON 15
  eH_6  (1.314328e-01,0.000000e+00) 1 1  ON 16
  eH_7  (1.159967e-01,0.000000e+00) 1 1  ON 17
  eH_8  (8.437516e-02,0.000000e+00) 1 1  ON 18
  eH_9  (5.006670e-02,0.000000e+00) 1 1  ON 19
 uuH_0  (0.000000e+00,0.000000e+00) 1 1  ON 20
 uuH_1  (0.000000e+00,0.000000e+00) 1 1  ON 21
 uuH_2  (0.000000e+00,0.000000e+00) 1 1  ON 22
 uuH_3  (0.000000e+00,0.000000e+00) 1 1  ON 23
 uuH_4  (0.000000e+00,0.000000e+00) 1 1  ON 24
 uuH_5  (0.000000e+00,0.000000e+00) 1 1  ON 25
 uuH_6  (0.000000e+00,0.000000e+00) 1 1  ON 26
 uuH_7  (0.000000e+00,0.000000e+00) 1 1  ON 27
 uuH_8  (0.000000e+00,0.000000e+00) 1 1  ON 28
 uuH_9  (0.000000e+00,0.000000e+00) 1 1  ON 29
uuH_10  (0.000000e+00,0.000000e+00) 1 1  ON 30
uuH_11  (0.000000e+00,0.000000e+00) 1 1  ON 31
uuH_12  (0.000000e+00,0.000000e+00) 1 1  ON 32
uuH_13  (0.000000e+00,0.000000e+00) 1 1  ON 33
uuH_14  (0.000000e+00,0.000000e+00) 1 1  ON 34
uuH_15  (0.000000e+00,0.000000e+00) 1 1  ON 35
uuH_16  (0.000000e+00,0.000000e+00) 1 1  ON 36
uuH_17  (0.000000e+00,0.000000e+00) 1 1  ON 37
uuH_18  (0.000000e+00,0.000000e+00) 1 1  ON 38
uuH_19  (0.000000e+00,0.000000e+00) 1 1  ON 39
uuH_20  (0.000000e+00,0.000000e+00) 1 1  ON 40
uuH_21  (0.000000e+00,0.000000e+00) 1 1  ON 41
uuH_22  (0.000000e+00,0.000000e+00) 1 1  ON 42
uuH_23  (0.000000e+00,0.000000e+00) 1 1  ON 43
uuH_24  (0.000000e+00,0.000000e+00) 1 1  ON 44
uuH_25  (0.000000e+00,0.000000e+00) 1 1  ON 45
 udH_0 (-3.456359e-04,0.000000e+00) 1 1  ON 46
 udH_1 (-4.926529e-03,0.000000e+00) 1 1  ON 47
 udH_2 (-4.229338e-03,0.000000e+00) 1 1  ON 48
 udH_3  (1.063511e-02,0.000000e+00) 1 1  ON 49
 udH_4  (1.030325e-02,0.000000e+00) 1 1  ON 50
 udH_5  (3.951288e-03,0.000000e+00) 1 1  ON 51
 udH_6 (-8.006214e-03,0.000000e+00) 1 1  ON 52
 udH_7 (-3.289500e-02,0.000000e+00) 1 1  ON 53
 udH_8  (1.293034e-02,0.000000e+00) 1 1  ON 54
 udH_9  (6.463903e-03,0.000000e+00) 1 1  ON 55
udH_10  (1.404965e-02,0.000000e+00) 1 1  ON 56
udH_11 (-6.424221e-03,0.000000e+00) 1 1  ON 57
udH_12 (-9.544331e-03,0.000000e+00) 1 1  ON 58
udH_13  (3.417773e-04,0.000000e+00) 1 1  ON 59
udH_14  (7.487892e-03,0.000000e+00) 1 1  ON 60
udH_15  (8.722858e-04,0.000000e+00) 1 1  ON 61
udH_16 (-4.148725e-04,0.000000e+00) 1 1  ON 62
udH_17  (8.735699e-03,0.000000e+00) 1 1  ON 63
udH_18  (5.180762e-03,0.000000e+00) 1 1  ON 64
udH_19  (6.281634e-03,0.000000e+00) 1 1  ON 65
udH_20 (-9.821260e-03,0.000000e+00) 1 1  ON 66
udH_21 (-1.356471e-03,0.000000e+00) 1 1  ON 67
udH_22  (3.353280e-04,0.000000e+00) 1 1  ON 68
udH_23  (1.900643e-02,0.000000e+00) 1 1  ON 69
udH_24 (-5.882549e-03,0.000000e+00) 1 1  ON 70
udH_25  (4.543456e-04,0.000000e+00) 1 1  ON 71
  </optVariables>
   Restore the number of walkers to 12, removing 0 walkers.
</opt>
</optimization-report>
  QMC Execution time = 0.1801 secs
BRANCH resetRun
  Continue with the same input as the previous block.
 SimpleFixedNodeBranch::resetRun detected changes in <parameter>'s 
 BranchMode : 0000001100 0000001100
 iParam (old):                100                 1                 3                 0                12                12                 1                 0
 iParam (new):                100                 1                 3                 0                12                12                 1                 0
 vParam (old):                0.5               0.5     -0.4930033118     -0.4930033118                 1                 1                 1                 1      0.9351583777     -0.4930033118                 1                 1                10                 1                 1                 1                 1
 vParam (new):                0.5               0.5     -0.4930033118     -0.4930033118                 1                 1                 1                 1      0.9351583777     -0.4930033118                 1                 1                10                 1                 1                 1                 1

=========================================================
  Start QMCFixedSampleLinearOptimize
  File Root H_wopos.s004 append = no 
=========================================================
  Skip QMCDriver::putQMCInfo 
  Resetting Properties of the walkers 1 x 12

=========================================================
  Start VMC
  File Root H_wopos.s004 append = no 
=========================================================
Using existing walkers 
  Resetting Properties of the walkers 1 x 12

<vmc function="put">
  qmc_counter=3  my_counter=0
  time step      = 0.5
  blocks         = 20
  steps          = 67
  substeps       = 4
  current        = 0
  target samples = 16000
  walkers/mpi    = 12

  stepsbetweensamples = 1
  SpinMoves      = no
<parameter name="blocks">20</parameter>
<parameter name="blocks_between_recompute">0</parameter>
<parameter name="check_properties">100</parameter>
<parameter name="checkproperties">100</parameter>
<parameter name="current">0</parameter>
<parameter name="dmcwalkersperthread">1334</parameter>
<parameter name="maxcpusecs">360000</parameter>
<parameter name="record_configs">0</parameter>
<parameter name="record_walkers">1</parameter>
<parameter name="recordconfigs">0</parameter>
<parameter name="recordwalkers">1</parameter>
<parameter name="rewind">0</parameter>
<parameter name="samples">16000</parameter>
<parameter name="samplesperthread">1334</parameter>
<parameter name="spinmass">1</parameter>
<parameter name="spinmoves">no</parameter>
<parameter name="steps">67</parameter>
<parameter name="stepsbetweensamples">1</parameter>
<parameter name="store_configs">0</parameter>
<parameter name="storeconfigs">0</parameter>
<parameter name="sub_steps">4</parameter>
<parameter name="substeps">4</parameter>
<parameter name="tau">0.5</parameter>
<parameter name="time_step">0.5</parameter>
<parameter name="timestep">0.5</parameter>
<parameter name="use_drift">no</parameter>
<parameter name="usedrift">no</parameter>
<parameter name="walkers">1</parameter>
<parameter name="warmup_steps">100</parameter>
<parameter name="warmupsteps">100</parameter>
  DumpConfig==false Nothing (configurations, state) will be saved.
  Walker Samples are dumped every 1 steps.
</vmc>
    Restarting, cummulative properties:
      energy     = -0.5029311911
      variance   = 0
      r2accepted = 1e-10
      r2proposed = 1e-10
  Set drift_modifier UNR parameter a = 1
 Using QMCCostFunction::QMCCostFunction
 Using Default Cost Function: Cost = <|E-E_ff|^2>
  Set drift_modifier UNR parameter a = 1.0000000000e+00
  EstimatorManagerBase::add replace LocalEnergy estimator.
<optimization-report>
<vmc stage="main" blocks="20">
  Cannot make clones again. Use existing 12 clones
  Initial partition of walkers 0 1 2 3 4 5 6 7 8 9 10 11 12 

  Using Particle by Particle moves
  Walker moves without drift
  Total Sample Size   =16008
  Walker distribution on root = 0 1 2 3 4 5 6 7 8 9 10 11 12 
===== Memory Usage after the buffer registration =====
Available memory on node 0, free + buffers : 21222 MB
Memory footprint by rank 0 on node 0       : 81 MB
==================================================
  Anonymous Buffer size per walker : 17408 Bytes.
MEMORY increase 0 MB VMC::resetRun
====================================================
  SimpleFixedNodeBranch::finalize after a VMC block
    QMC counter        = 3
    time step          = 0.5
    reference energy   = -0.518692
    reference variance = 0.0374963
====================================================
  Execution time = 4.4375e-02
</vmc>
<opt stage="setup">
  <log>
   Reading configurations from h5FileRoot H_wopos.s004
  QMCCostFunction is created with 12 threads.
  Using Nonlocal PP in Opt: no
   Number of samples loaded to each thread : 1334 1334 1334 1334 1334 1334 1334 1334 1334 1334 1334 1334 
  VMC Eavg = -5.1865e-01
  VMC Evar = 3.7607e-02
  Total weights = 1.6008e+04
  Execution time = 1.9450e-02
  </log>
</opt>
<opt stage="main" walkers="16008">
  <log>

*****************************************
Building overlap and Hamiltonian matrices
*****************************************

Among totally 72 optimized parameters, largest LM parameter change : 1.0685e-01 at parameter 0

******************************************************************************
Init Cost =  -4.6302e-01    New Cost =  -4.6447e-01  Delta Cost =  -1.4486e-03
******************************************************************************

The new set of parameters is valid. Updating the trial wave function!

*****************************************************************************
Applying the update for shift_i =   1.0000e-02     and shift_s =   3.9062e-03
*****************************************************************************
  Execution time = 1.0966e-01
  </log>
  <optVariables href="H_wopos.s004.opt.xml">
  ud_0  (5.533408e-01,0.000000e+00) 1 1  ON 0
  ud_1  (5.265140e-01,0.000000e+00) 1 1  ON 1
  ud_2  (2.920448e-01,0.000000e+00) 1 1  ON 2
  ud_3  (1.136806e-01,0.000000e+00) 1 1  ON 3
  ud_4 (-5.247140e-02,0.000000e+00) 1 1  ON 4
  ud_5 (-1.650175e-01,0.000000e+00) 1 1  ON 5
  ud_6 (-2.323056e-01,0.000000e+00) 1 1  ON 6
  ud_7 (-2.543947e-01,0.000000e+00) 1 1  ON 7
  ud_8 (-2.218485e-01,0.000000e+00) 1 1  ON 8
  ud_9 (-1.683608e-01,0.000000e+00) 1 1  ON 9
  eH_0 (-4.187946e-01,0.000000e+00) 1 1  ON 10
  eH_1 (-3.228376e-01,0.000000e+00) 1 1  ON 11
  eH_2 (-1.586857e-01,0.000000e+00) 1 1  ON 12
  eH_3 (-2.347164e-02,0.000000e+00) 1 1  ON 13
  eH_4  (8.706358e-02,0.000000e+00) 1 1  ON 14
  eH_5  (1.517709e-01,0.000000e+00) 1 1  ON 15
  eH_6  (1.703610e-01,0.000000e+00) 1 1  ON 16
  eH_7  (1.650874e-01,0.000000e+00) 1 1  ON 17
  eH_8  (1.345735e-01,0.000000e+00) 1 1  ON 18
  eH_9  (7.439850e-02,0.000000e+00) 1 1  ON 19
 uuH_0  (0.000000e+00,0.000000e+00) 1 1  ON 20
 uuH_1  (0.000000e+00,0.000000e+00) 1 1  ON 21
 uuH_2  (0.000000e+00,0.000000e+00) 1 1  ON 22
 uuH_3  (0.000000e+00,0.000000e+00) 1 1  ON 23
 uuH_4  (0.000000e+00,0.000000e+00) 1 1  ON 24
 uuH_5  (0.000000e+00,0.000000e+00) 1 1  ON 25
 uuH_6  (0.000000e+00,0.000000e+00) 1 1  ON 26
 uuH_7  (0.000000e+00,0.000000e+00) 1 1  ON 27
 uuH_8  (0.000000e+00,0.000000e+00) 1 1  ON 28
 uuH_9  (0.000000e+00,0.000000e+00) 1 1  ON 29
uuH_10  (0.000000e+00,0.000000e+00) 1 1  ON 30
uuH_11  (0.000000e+00,0.000000e+00) 1 1  ON 31
uuH_12  (0.000000e+00,0.000000e+00) 1 1  ON 32
uuH_13  (0.000000e+00,0.000000e+00) 1 1  ON 33
uuH_14  (0.000000e+00,0.000000e+00) 1 1  ON 34
uuH_15  (0.000000e+00,0.000000e+00) 1 1  ON 35
uuH_16  (0.000000e+00,0.000000e+00) 1 1  ON 36
uuH_17  (0.000000e+00,0.000000e+00) 1 1  ON 37
uuH_18  (0.000000e+00,0.000000e+00) 1 1  ON 38
uuH_19  (0.000000e+00,0.000000e+00) 1 1  ON 39
uuH_20  (0.000000e+00,0.000000e+00) 1 1  ON 40
uuH_21  (0.000000e+00,0.000000e+00) 1 1  ON 41
uuH_22  (0.000000e+00,0.000000e+00) 1 1  ON 42
uuH_23  (0.000000e+00,0.000000e+00) 1 1  ON 43
uuH_24  (0.000000e+00,0.000000e+00) 1 1  ON 44
uuH_25  (0.000000e+00,0.000000e+00) 1 1  ON 45
 udH_0 (-2.337002e-03,0.000000e+00) 1 1  ON 46
 udH_1 (-6.608095e-03,0.000000e+00) 1 1  ON 47
 udH_2  (1.542019e-03,0.000000e+00) 1 1  ON 48
 udH_3  (8.298377e-03,0.000000e+00) 1 1  ON 49
 udH_4  (7.646385e-03,0.000000e+00) 1 1  ON 50
 udH_5  (3.618833e-03,0.000000e+00) 1 1  ON 51
 udH_6 (-1.221382e-02,0.000000e+00) 1 1  ON 52
 udH_7 (-3.877157e-02,0.000000e+00) 1 1  ON 53
 udH_8  (1.805769e-02,0.000000e+00) 1 1  ON 54
 udH_9  (1.292206e-02,0.000000e+00) 1 1  ON 55
udH_10  (1.383592e-02,0.000000e+00) 1 1  ON 56
udH_11 (-5.320784e-03,0.000000e+00) 1 1  ON 57
udH_12 (-1.382105e-02,0.000000e+00) 1 1  ON 58
udH_13  (3.166033e-03,0.000000e+00) 1 1  ON 59
udH_14  (6.132006e-03,0.000000e+00) 1 1  ON 60
udH_15  (2.209978e-03,0.000000e+00) 1 1  ON 61
udH_16 (-5.961356e-03,0.000000e+00) 1 1  ON 62
udH_17  (6.465972e-03,0.000000e+00) 1 1  ON 63
udH_18  (1.022829e-02,0.000000e+00) 1 1  ON 64
udH_19  (1.063711e-02,0.000000e+00) 1 1  ON 65
udH_20 (-1.796550e-02,0.000000e+00) 1 1  ON 66
udH_21  (1.055548e-03,0.000000e+00) 1 1  ON 67
udH_22 (-1.976272e-03,0.000000e+00) 1 1  ON 68
udH_23  (2.724378e-02,0.000000e+00) 1 1  ON 69
udH_24 (-9.621945e-03,0.000000e+00) 1 1  ON 70
udH_25  (2.009779e-03,0.000000e+00) 1 1  ON 71
  </optVariables>
   Restore the number of walkers to 12, removing 0 walkers.
</opt>
</optimization-report>
  QMC Execution time = 0.1741 secs
Loop execution max-interations = 10
BRANCH resetRun
  Continue with the same input as the previous block.
 SimpleFixedNodeBranch::resetRun detected changes in <parameter>'s 
 BranchMode : 0000001100 0000001100
 iParam (old):                100                 1                 4                 0                12                12                 1                 0
 iParam (new):                100                 1                 4                 0                12                12                 1                 0
 vParam (old):                0.5               0.5     -0.4930033118     -0.4930033118                 1                 1                 1                 1      0.9351583777     -0.4930033118                 1                 1                10                 1                 1                 1                 1
 vParam (new):                0.5               0.5     -0.4930033118     -0.4930033118                 1                 1                 1                 1      0.9351583777     -0.4930033118                 1                 1                10                 1                 1                 1                 1

=========================================================
  Start QMCFixedSampleLinearOptimize
  File Root H_wopos.s005 append = no 
=========================================================
  Skip QMCDriver::putQMCInfo 
  Resetting Properties of the walkers 1 x 12

=========================================================
  Start VMC
  File Root H_wopos.s005 append = no 
=========================================================
Resetting walkers
  Using the current 12 walkers.
  Total number of walkers: 12
  Total weight: 12
  Resetting Properties of the walkers 1 x 12

<vmc function="put">
  qmc_counter=0  my_counter=0
  time step      = 0.5
  blocks         = 20
  steps          = 267
  substeps       = 4
  current        = 0
  target samples = 64000
  walkers/mpi    = 12

  stepsbetweensamples = 1
  SpinMoves      = no
<parameter name="blocks">20</parameter>
<parameter name="blocks_between_recompute">0</parameter>
<parameter name="check_properties">100</parameter>
<parameter name="checkproperties">100</parameter>
<parameter name="current">0</parameter>
<parameter name="dmcwalkersperthread">5334</parameter>
<parameter name="maxcpusecs">360000</parameter>
<parameter name="record_configs">0</parameter>
<parameter name="record_walkers">1</parameter>
<parameter name="recordconfigs">0</parameter>
<parameter name="recordwalkers">1</parameter>
<parameter name="rewind">0</parameter>
<parameter name="samples">64000</parameter>
<parameter name="samplesperthread">5334</parameter>
<parameter name="spinmass">1</parameter>
<parameter name="spinmoves">no</parameter>
<parameter name="steps">267</parameter>
<parameter name="stepsbetweensamples">1</parameter>
<parameter name="store_configs">0</parameter>
<parameter name="storeconfigs">0</parameter>
<parameter name="sub_steps">4</parameter>
<parameter name="substeps">4</parameter>
<parameter name="tau">0.5</parameter>
<parameter name="time_step">0.5</parameter>
<parameter name="timestep">0.5</parameter>
<parameter name="use_drift">no</parameter>
<parameter name="usedrift">no</parameter>
<parameter name="walkers">12</parameter>
<parameter name="warmup_steps">100</parameter>
<parameter name="warmupsteps">100</parameter>
  DumpConfig==false Nothing (configurations, state) will be saved.
  Walker Samples are dumped every 1 steps.
</vmc>
  Set drift_modifier UNR parameter a = 1
 Using QMCCostFunction::QMCCostFunction
 Using Default Cost Function: Cost = <|E-E_ff|^2>
  Set drift_modifier UNR parameter a = 1.0000000000e+00
  EstimatorManagerBase::add replace LocalEnergy estimator.
<optimization-report>
<vmc stage="main" blocks="20">
  Cannot make clones again. Use existing 12 clones
  Initial partition of walkers 0 1 2 3 4 5 6 7 8 9 10 11 12 

  Using Particle by Particle moves
  Walker moves without drift
  Total Sample Size   =64008
  Walker distribution on root = 0 1 2 3 4 5 6 7 8 9 10 11 12 
===== Memory Usage after the buffer registration =====
Available memory on node 0, free + buffers : 21221 MB
Memory footprint by rank 0 on node 0       : 81 MB
==================================================
  Anonymous Buffer size per walker : 17408 Bytes.
MEMORY increase 0 MB VMC::resetRun
====================================================
  SimpleFixedNodeBranch::finalize after a VMC block
    QMC counter        = 0
    time step          = 0.5
    reference energy   = -0.520732
    reference variance = 0.0939242
====================================================
  Execution time = 1.5825e-01
</vmc>
<opt stage="setup">
  <log>
   Reading configurations from h5FileRoot H_wopos.s005
  QMCCostFunction is created with 12 threads.
  Using Nonlocal PP in Opt: no
   Number of samples loaded to each thread : 5334 5334 5334 5334 5334 5334 5334 5334 5334 5334 5334 5334 
  VMC Eavg = -5.2073e-01
  VMC Evar = 9.4010e-02
  Total weights = 6.4008e+04
  Execution time = 7.2811e-02
  </log>
</opt>
<opt stage="main" walkers="64008">
  <log>

*****************************************
Building overlap and Hamiltonian matrices
*****************************************

Among totally 72 optimized parameters, largest LM parameter change : 7.2999e-02 at parameter 0

******************************************************************************
Init Cost =  -4.5926e-01    New Cost =  -4.5954e-01  Delta Cost =  -2.7762e-04
******************************************************************************

The new set of parameters is valid. Updating the trial wave function!

*****************************************************************************
Applying the update for shift_i =   1.0000e-02     and shift_s =   2.5000e-01
*****************************************************************************
  Execution time = 4.3780e-01
  </log>
  <optVariables href="H_wopos.s005.opt.xml">
  ud_0  (6.263401e-01,0.000000e+00) 1 1  ON 0
  ud_1  (5.479249e-01,0.000000e+00) 1 1  ON 1
  ud_2  (3.094804e-01,0.000000e+00) 1 1  ON 2
  ud_3  (1.281290e-01,0.000000e+00) 1 1  ON 3
  ud_4 (-3.947742e-02,0.000000e+00) 1 1  ON 4
  ud_5 (-1.602593e-01,0.000000e+00) 1 1  ON 5
  ud_6 (-2.322905e-01,0.000000e+00) 1 1  ON 6
  ud_7 (-2.560983e-01,0.000000e+00) 1 1  ON 7
  ud_8 (-2.300326e-01,0.000000e+00) 1 1  ON 8
  ud_9 (-1.772598e-01,0.000000e+00) 1 1  ON 9
  eH_0 (-4.276752e-01,0.000000e+00) 1 1  ON 10
  eH_1 (-3.268697e-01,0.000000e+00) 1 1  ON 11
  eH_2 (-1.660074e-01,0.000000e+00) 1 1  ON 12
  eH_3 (-2.533232e-02,0.000000e+00) 1 1  ON 13
  eH_4  (8.537429e-02,0.000000e+00) 1 1  ON 14
  eH_5  (1.503654e-01,0.000000e+00) 1 1  ON 15
  eH_6  (1.712117e-01,0.000000e+00) 1 1  ON 16
  eH_7  (1.729975e-01,0.000000e+00) 1 1  ON 17
  eH_8  (1.397102e-01,0.000000e+00) 1 1  ON 18
  eH_9  (8.272886e-02,0.000000e+00) 1 1  ON 19
 uuH_0  (0.000000e+00,0.000000e+00) 1 1  ON 20
 uuH_1  (0.000000e+00,0.000000e+00) 1 1  ON 21
 uuH_2  (0.000000e+00,0.000000e+00) 1 1  ON 22
 uuH_3  (0.000000e+00,0.000000e+00) 1 1  ON 23
 uuH_4  (0.000000e+00,0.000000e+00) 1 1  ON 24
 uuH_5  (0.000000e+00,0.000000e+00) 1 1  ON 25
 uuH_6  (0.000000e+00,0.000000e+00) 1 1  ON 26
 uuH_7  (0.000000e+00,0.000000e+00) 1 1  ON 27
 uuH_8  (0.000000e+00,0.000000e+00) 1 1  ON 28
 uuH_9  (0.000000e+00,0.000000e+00) 1 1  ON 29
uuH_10  (0.000000e+00,0.000000e+00) 1 1  ON 30
uuH_11  (0.000000e+00,0.000000e+00) 1 1  ON 31
uuH_12  (0.000000e+00,0.000000e+00) 1 1  ON 32
uuH_13  (0.000000e+00,0.000000e+00) 1 1  ON 33
uuH_14  (0.000000e+00,0.000000e+00) 1 1  ON 34
uuH_15  (0.000000e+00,0.000000e+00) 1 1  ON 35
uuH_16  (0.000000e+00,0.000000e+00) 1 1  ON 36
uuH_17  (0.000000e+00,0.000000e+00) 1 1  ON 37
uuH_18  (0.000000e+00,0.000000e+00) 1 1  ON 38
uuH_19  (0.000000e+00,0.000000e+00) 1 1  ON 39
uuH_20  (0.000000e+00,0.000000e+00) 1 1  ON 40
uuH_21  (0.000000e+00,0.000000e+00) 1 1  ON 41
uuH_22  (0.000000e+00,0.000000e+00) 1 1  ON 42
uuH_23  (0.000000e+00,0.000000e+00) 1 1  ON 43
uuH_24  (0.000000e+00,0.000000e+00) 1 1  ON 44
uuH_25  (0.000000e+00,0.000000e+00) 1 1  ON 45
 udH_0 (-3.910937e-03,0.000000e+00) 1 1  ON 46
 udH_1 (-4.785842e-03,0.000000e+00) 1 1  ON 47
 udH_2  (7.228842e-03,0.000000e+00) 1 1  ON 48
 udH_3  (7.534287e-03,0.000000e+00) 1 1  ON 49
 udH_4  (8.812545e-03,0.000000e+00) 1 1  ON 50
 udH_5  (3.057916e-03,0.000000e+00) 1 1  ON 51
 udH_6 (-6.272342e-03,0.000000e+00) 1 1  ON 52
 udH_7 (-4.348460e-02,0.000000e+00) 1 1  ON 53
 udH_8  (2.215815e-02,0.000000e+00) 1 1  ON 54
 udH_9  (1.117569e-02,0.000000e+00) 1 1  ON 55
udH_10  (1.518441e-02,0.000000e+00) 1 1  ON 56
udH_11 (-6.075252e-03,0.000000e+00) 1 1  ON 57
udH_12 (-1.254086e-02,0.000000e+00) 1 1  ON 58
udH_13  (4.411754e-03,0.000000e+00) 1 1  ON 59
udH_14  (4.207403e-03,0.000000e+00) 1 1  ON 60
udH_15  (2.380047e-03,0.000000e+00) 1 1  ON 61
udH_16 (-7.908807e-03,0.000000e+00) 1 1  ON 62
udH_17  (8.094784e-03,0.000000e+00) 1 1  ON 63
udH_18  (1.091328e-02,0.000000e+00) 1 1  ON 64
udH_19  (8.513619e-03,0.000000e+00) 1 1  ON 65
udH_20 (-1.659327e-02,0.000000e+00) 1 1  ON 66
udH_21  (8.419292e-04,0.000000e+00) 1 1  ON 67
udH_22 (-1.930227e-03,0.000000e+00) 1 1  ON 68
udH_23  (2.340261e-02,0.000000e+00) 1 1  ON 69
udH_24 (-7.675793e-03,0.000000e+00) 1 1  ON 70
udH_25  (1.809554e-03,0.000000e+00) 1 1  ON 71
  </optVariables>
   Restore the number of walkers to 12, removing 0 walkers.
</opt>
</optimization-report>
  QMC Execution time = 0.6696 secs
BRANCH resetRun
  Continue with the same input as the previous block.
 SimpleFixedNodeBranch::resetRun detected changes in <parameter>'s 
 BranchMode : 0000001100 0000001100
 iParam (old):                100                 1                 5                 0                12                12                 1                 0
 iParam (new):                100                 1                 5                 0                12                12                 1                 0
 vParam (old):                0.5               0.5     -0.4930033118     -0.4930033118                 1                 1                 1                 1      0.9351583777     -0.4930033118                 1                 1                10                 1                 1                 1                 1
 vParam (new):                0.5               0.5     -0.4930033118     -0.4930033118                 1                 1                 1                 1      0.9351583777     -0.4930033118                 1                 1                10                 1                 1                 1                 1

=========================================================
  Start QMCFixedSampleLinearOptimize
  File Root H_wopos.s006 append = no 
=========================================================
  Skip QMCDriver::putQMCInfo 
  Resetting Properties of the walkers 1 x 12

=========================================================
  Start VMC
  File Root H_wopos.s006 append = no 
=========================================================
Using existing walkers 
  Resetting Properties of the walkers 1 x 12

<vmc function="put">
  qmc_counter=1  my_counter=0
  time step      = 0.5
  blocks         = 20
  steps          = 267
  substeps       = 4
  current        = 0
  target samples = 64000
  walkers/mpi    = 12

  stepsbetweensamples = 1
  SpinMoves      = no
<parameter name="blocks">20</parameter>
<parameter name="blocks_between_recompute">0</parameter>
<parameter name="check_properties">100</parameter>
<parameter name="checkproperties">100</parameter>
<parameter name="current">0</parameter>
<parameter name="dmcwalkersperthread">5334</parameter>
<parameter name="maxcpusecs">360000</parameter>
<parameter name="record_configs">0</parameter>
<parameter name="record_walkers">1</parameter>
<parameter name="recordconfigs">0</parameter>
<parameter name="recordwalkers">1</parameter>
<parameter name="rewind">0</parameter>
<parameter name="samples">64000</parameter>
<parameter name="samplesperthread">5334</parameter>
<parameter name="spinmass">1</parameter>
<parameter name="spinmoves">no</parameter>
<parameter name="steps">267</parameter>
<parameter name="stepsbetweensamples">1</parameter>
<parameter name="store_configs">0</parameter>
<parameter name="storeconfigs">0</parameter>
<parameter name="sub_steps">4</parameter>
<parameter name="substeps">4</parameter>
<parameter name="tau">0.5</parameter>
<parameter name="time_step">0.5</parameter>
<parameter name="timestep">0.5</parameter>
<parameter name="use_drift">no</parameter>
<parameter name="usedrift">no</parameter>
<parameter name="walkers">1</parameter>
<parameter name="warmup_steps">100</parameter>
<parameter name="warmupsteps">100</parameter>
  DumpConfig==false Nothing (configurations, state) will be saved.
  Walker Samples are dumped every 1 steps.
</vmc>
    Restarting, cummulative properties:
      energy     = -0.5207319467
      variance   = 0
      r2accepted = 1e-10
      r2proposed = 1e-10
  Set drift_modifier UNR parameter a = 1
 Using QMCCostFunction::QMCCostFunction
 Using Default Cost Function: Cost = <|E-E_ff|^2>
  Set drift_modifier UNR parameter a = 1.0000000000e+00
  EstimatorManagerBase::add replace LocalEnergy estimator.
<optimization-report>
<vmc stage="main" blocks="20">
  Cannot make clones again. Use existing 12 clones
  Initial partition of walkers 0 1 2 3 4 5 6 7 8 9 10 11 12 

  Using Particle by Particle moves
  Walker moves without drift
  Total Sample Size   =64008
  Walker distribution on root = 0 1 2 3 4 5 6 7 8 9 10 11 12 
===== Memory Usage after the buffer registration =====
Available memory on node 0, free + buffers : 21168 MB
Memory footprint by rank 0 on node 0       : 198 MB
==================================================
  Anonymous Buffer size per walker : 17408 Bytes.
MEMORY increase 0 MB VMC::resetRun
====================================================
  SimpleFixedNodeBranch::finalize after a VMC block
    QMC counter        = 1
    time step          = 0.5
    reference energy   = -0.523354
    reference variance = 0.073727
====================================================
  Execution time = 1.6269e-01
</vmc>
<opt stage="setup">
  <log>
   Reading configurations from h5FileRoot H_wopos.s006
  QMCCostFunction is created with 12 threads.
  Using Nonlocal PP in Opt: no
   Number of samples loaded to each thread : 5334 5334 5334 5334 5334 5334 5334 5334 5334 5334 5334 5334 
  VMC Eavg = -5.2337e-01
  VMC Evar = 7.3778e-02
  Total weights = 6.4008e+04
  Execution time = 6.4528e-02
  </log>
</opt>
<opt stage="main" walkers="64008">
  <log>

*****************************************
Building overlap and Hamiltonian matrices
*****************************************

Among totally 72 optimized parameters, largest LM parameter change : 5.5127e+02 at parameter 64

******************************************************************************
Init Cost =  -4.6365e-01    New Cost =  -4.2064e+05  Delta Cost =  -4.2064e+05
******************************************************************************

The new set of parameters is not valid. Revert to the old set!

*****************************************************************************
Applying the update for shift_i =   1.0000e-02     and shift_s =   1.0000e+00
*****************************************************************************
  Execution time = 4.3146e-01
  </log>
  <optVariables href="H_wopos.s006.opt.xml">
  ud_0  (6.263401e-01,0.000000e+00) 1 1  ON 0
  ud_1  (5.479249e-01,0.000000e+00) 1 1  ON 1
  ud_2  (3.094804e-01,0.000000e+00) 1 1  ON 2
  ud_3  (1.281290e-01,0.000000e+00) 1 1  ON 3
  ud_4 (-3.947742e-02,0.000000e+00) 1 1  ON 4
  ud_5 (-1.602593e-01,0.000000e+00) 1 1  ON 5
  ud_6 (-2.322905e-01,0.000000e+00) 1 1  ON 6
  ud_7 (-2.560983e-01,0.000000e+00) 1 1  ON 7
  ud_8 (-2.300326e-01,0.000000e+00) 1 1  ON 8
  ud_9 (-1.772598e-01,0.000000e+00) 1 1  ON 9
  eH_0 (-4.276752e-01,0.000000e+00) 1 1  ON 10
  eH_1 (-3.268697e-01,0.000000e+00) 1 1  ON 11
  eH_2 (-1.660074e-01,0.000000e+00) 1 1  ON 12
  eH_3 (-2.533232e-02,0.000000e+00) 1 1  ON 13
  eH_4  (8.537429e-02,0.000000e+00) 1 1  ON 14
  eH_5  (1.503654e-01,0.000000e+00) 1 1  ON 15
  eH_6  (1.712117e-01,0.000000e+00) 1 1  ON 16
  eH_7  (1.729975e-01,0.000000e+00) 1 1  ON 17
  eH_8  (1.397102e-01,0.000000e+00) 1 1  ON 18
  eH_9  (8.272886e-02,0.000000e+00) 1 1  ON 19
 uuH_0  (0.000000e+00,0.000000e+00) 1 1  ON 20
 uuH_1  (0.000000e+00,0.000000e+00) 1 1  ON 21
 uuH_2  (0.000000e+00,0.000000e+00) 1 1  ON 22
 uuH_3  (0.000000e+00,0.000000e+00) 1 1  ON 23
 uuH_4  (0.000000e+00,0.000000e+00) 1 1  ON 24
 uuH_5  (0.000000e+00,0.000000e+00) 1 1  ON 25
 uuH_6  (0.000000e+00,0.000000e+00) 1 1  ON 26
 uuH_7  (0.000000e+00,0.000000e+00) 1 1  ON 27
 uuH_8  (0.000000e+00,0.000000e+00) 1 1  ON 28
 uuH_9  (0.000000e+00,0.000000e+00) 1 1  ON 29
uuH_10  (0.000000e+00,0.000000e+00) 1 1  ON 30
uuH_11  (0.000000e+00,0.000000e+00) 1 1  ON 31
uuH_12  (0.000000e+00,0.000000e+00) 1 1  ON 32
uuH_13  (0.000000e+00,0.000000e+00) 1 1  ON 33
uuH_14  (0.000000e+00,0.000000e+00) 1 1  ON 34
uuH_15  (0.000000e+00,0.000000e+00) 1 1  ON 35
uuH_16  (0.000000e+00,0.000000e+00) 1 1  ON 36
uuH_17  (0.000000e+00,0.000000e+00) 1 1  ON 37
uuH_18  (0.000000e+00,0.000000e+00) 1 1  ON 38
uuH_19  (0.000000e+00,0.000000e+00) 1 1  ON 39
uuH_20  (0.000000e+00,0.000000e+00) 1 1  ON 40
uuH_21  (0.000000e+00,0.000000e+00) 1 1  ON 41
uuH_22  (0.000000e+00,0.000000e+00) 1 1  ON 42
uuH_23  (0.000000e+00,0.000000e+00) 1 1  ON 43
uuH_24  (0.000000e+00,0.000000e+00) 1 1  ON 44
uuH_25  (0.000000e+00,0.000000e+00) 1 1  ON 45
 udH_0 (-3.910937e-03,0.000000e+00) 1 1  ON 46
 udH_1 (-4.785842e-03,0.000000e+00) 1 1  ON 47
 udH_2  (7.228842e-03,0.000000e+00) 1 1  ON 48
 udH_3  (7.534287e-03,0.000000e+00) 1 1  ON 49
 udH_4  (8.812545e-03,0.000000e+00) 1 1  ON 50
 udH_5  (3.057916e-03,0.000000e+00) 1 1  ON 51
 udH_6 (-6.272342e-03,0.000000e+00) 1 1  ON 52
 udH_7 (-4.348460e-02,0.000000e+00) 1 1  ON 53
 udH_8  (2.215815e-02,0.000000e+00) 1 1  ON 54
 udH_9  (1.117569e-02,0.000000e+00) 1 1  ON 55
udH_10  (1.518441e-02,0.000000e+00) 1 1  ON 56
udH_11 (-6.075252e-03,0.000000e+00) 1 1  ON 57
udH_12 (-1.254086e-02,0.000000e+00) 1 1  ON 58
udH_13  (4.411754e-03,0.000000e+00) 1 1  ON 59
udH_14  (4.207403e-03,0.000000e+00) 1 1  ON 60
udH_15  (2.380047e-03,0.000000e+00) 1 1  ON 61
udH_16 (-7.908807e-03,0.000000e+00) 1 1  ON 62
udH_17  (8.094784e-03,0.000000e+00) 1 1  ON 63
udH_18  (1.091328e-02,0.000000e+00) 1 1  ON 64
udH_19  (8.513619e-03,0.000000e+00) 1 1  ON 65
udH_20 (-1.659327e-02,0.000000e+00) 1 1  ON 66
udH_21  (8.419292e-04,0.000000e+00) 1 1  ON 67
udH_22 (-1.930227e-03,0.000000e+00) 1 1  ON 68
udH_23  (2.340261e-02,0.000000e+00) 1 1  ON 69
udH_24 (-7.675793e-03,0.000000e+00) 1 1  ON 70
udH_25  (1.809554e-03,0.000000e+00) 1 1  ON 71
  </optVariables>
   Restore the number of walkers to 12, removing 0 walkers.
</opt>
</optimization-report>
  QMC Execution time = 0.6594 secs
BRANCH resetRun
  Continue with the same input as the previous block.
 SimpleFixedNodeBranch::resetRun detected changes in <parameter>'s 
 BranchMode : 0000001100 0000001100
 iParam (old):                100                 1                 6                 0                12                12                 1                 0
 iParam (new):                100                 1                 6                 0                12                12                 1                 0
 vParam (old):                0.5               0.5     -0.4930033118     -0.4930033118                 1                 1                 1                 1      0.9351583777     -0.4930033118                 1                 1                10                 1                 1                 1                 1
 vParam (new):                0.5               0.5     -0.4930033118     -0.4930033118                 1                 1                 1                 1      0.9351583777     -0.4930033118                 1                 1                10                 1                 1                 1                 1

=========================================================
  Start QMCFixedSampleLinearOptimize
  File Root H_wopos.s007 append = no 
=========================================================
  Skip QMCDriver::putQMCInfo 
  Resetting Properties of the walkers 1 x 12

=========================================================
  Start VMC
  File Root H_wopos.s007 append = no 
=========================================================
Using existing walkers 
  Resetting Properties of the walkers 1 x 12

<vmc function="put">
  qmc_counter=2  my_counter=0
  time step      = 0.5
  blocks         = 20
  steps          = 267
  substeps       = 4
  current        = 0
  target samples = 64000
  walkers/mpi    = 12

  stepsbetweensamples = 1
  SpinMoves      = no
<parameter name="blocks">20</parameter>
<parameter name="blocks_between_recompute">0</parameter>
<parameter name="check_properties">100</parameter>
<parameter name="checkproperties">100</parameter>
<parameter name="current">0</parameter>
<parameter name="dmcwalkersperthread">5334</parameter>
<parameter name="maxcpusecs">360000</parameter>
<parameter name="record_configs">0</parameter>
<parameter name="record_walkers">1</parameter>
<parameter name="recordconfigs">0</parameter>
<parameter name="recordwalkers">1</parameter>
<parameter name="rewind">0</parameter>
<parameter name="samples">64000</parameter>
<parameter name="samplesperthread">5334</parameter>
<parameter name="spinmass">1</parameter>
<parameter name="spinmoves">no</parameter>
<parameter name="steps">267</parameter>
<parameter name="stepsbetweensamples">1</parameter>
<parameter name="store_configs">0</parameter>
<parameter name="storeconfigs">0</parameter>
<parameter name="sub_steps">4</parameter>
<parameter name="substeps">4</parameter>
<parameter name="tau">0.5</parameter>
<parameter name="time_step">0.5</parameter>
<parameter name="timestep">0.5</parameter>
<parameter name="use_drift">no</parameter>
<parameter name="usedrift">no</parameter>
<parameter name="walkers">1</parameter>
<parameter name="warmup_steps">100</parameter>
<parameter name="warmupsteps">100</parameter>
  DumpConfig==false Nothing (configurations, state) will be saved.
  Walker Samples are dumped every 1 steps.
</vmc>
    Restarting, cummulative properties:
      energy     = -0.5220429828
      variance   = 0
      r2accepted = 1e-10
      r2proposed = 1e-10
  Set drift_modifier UNR parameter a = 1
 Using QMCCostFunction::QMCCostFunction
 Using Default Cost Function: Cost = <|E-E_ff|^2>
  Set drift_modifier UNR parameter a = 1.0000000000e+00
  EstimatorManagerBase::add replace LocalEnergy estimator.
<optimization-report>
<vmc stage="main" blocks="20">
  Cannot make clones again. Use existing 12 clones
  Initial partition of walkers 0 1 2 3 4 5 6 7 8 9 10 11 12 

  Using Particle by Particle moves
  Walker moves without drift
  Total Sample Size   =64008
  Walker distribution on root = 0 1 2 3 4 5 6 7 8 9 10 11 12 
===== Memory Usage after the buffer registration =====
Available memory on node 0, free + buffers : 21112 MB
Memory footprint by rank 0 on node 0       : 198 MB
==================================================
  Anonymous Buffer size per walker : 17408 Bytes.
MEMORY increase 0 MB VMC::resetRun
====================================================
  SimpleFixedNodeBranch::finalize after a VMC block
    QMC counter        = 2
    time step          = 0.5
    reference energy   = -0.522501
    reference variance = 0.072564
====================================================
  Execution time = 1.5795e-01
</vmc>
<opt stage="setup">
  <log>
   Reading configurations from h5FileRoot H_wopos.s007
  QMCCostFunction is created with 12 threads.
  Using Nonlocal PP in Opt: no
   Number of samples loaded to each thread : 5334 5334 5334 5334 5334 5334 5334 5334 5334 5334 5334 5334 
  VMC Eavg = -5.2251e-01
  VMC Evar = 7.2616e-02
  Total weights = 6.4008e+04
  Execution time = 6.5507e-02
  </log>
</opt>
<opt stage="main" walkers="64008">
  <log>

*****************************************
Building overlap and Hamiltonian matrices
*****************************************

Among totally 72 optimized parameters, largest LM parameter change : 6.1638e-02 at parameter 0

******************************************************************************
Init Cost =  -4.6300e-01    New Cost =  -4.6325e-01  Delta Cost =  -2.4757e-04
******************************************************************************

The new set of parameters is valid. Updating the trial wave function!

*****************************************************************************
Applying the update for shift_i =   1.0000e-02     and shift_s =   2.5000e-01
*****************************************************************************
  Execution time = 4.3496e-01
  </log>
  <optVariables href="H_wopos.s007.opt.xml">
  ud_0  (6.879784e-01,0.000000e+00) 1 1  ON 0
  ud_1  (5.673835e-01,0.000000e+00) 1 1  ON 1
  ud_2  (3.225385e-01,0.000000e+00) 1 1  ON 2
  ud_3  (1.410676e-01,0.000000e+00) 1 1  ON 3
  ud_4 (-2.804859e-02,0.000000e+00) 1 1  ON 4
  ud_5 (-1.540249e-01,0.000000e+00) 1 1  ON 5
  ud_6 (-2.267207e-01,0.000000e+00) 1 1  ON 6
  ud_7 (-2.549507e-01,0.000000e+00) 1 1  ON 7
  ud_8 (-2.309079e-01,0.000000e+00) 1 1  ON 8
  ud_9 (-1.874899e-01,0.000000e+00) 1 1  ON 9
  eH_0 (-4.452114e-01,0.000000e+00) 1 1  ON 10
  eH_1 (-3.323886e-01,0.000000e+00) 1 1  ON 11
  eH_2 (-1.736439e-01,0.000000e+00) 1 1  ON 12
  eH_3 (-3.006094e-02,0.000000e+00) 1 1  ON 13
  eH_4  (8.216963e-02,0.000000e+00) 1 1  ON 14
  eH_5  (1.433106e-01,0.000000e+00) 1 1  ON 15
  eH_6  (1.713500e-01,0.000000e+00) 1 1  ON 16
  eH_7  (1.728681e-01,0.000000e+00) 1 1  ON 17
  eH_8  (1.411460e-01,0.000000e+00) 1 1  ON 18
  eH_9  (8.857654e-02,0.000000e+00) 1 1  ON 19
 uuH_0  (0.000000e+00,0.000000e+00) 1 1  ON 20
 uuH_1  (0.000000e+00,0.000000e+00) 1 1  ON 21
 uuH_2  (0.000000e+00,0.000000e+00) 1 1  ON 22
 uuH_3  (0.000000e+00,0.000000e+00) 1 1  ON 23
 uuH_4  (0.000000e+00,0.000000e+00) 1 1  ON 24
 uuH_5  (0.000000e+00,0.000000e+00) 1 1  ON 25
[...]
udH_25  (1.589423e-03,0.000000e+00) 1 1  ON 71
  </optVariables>
   Restore the number of walkers to 12, removing 0 walkers.
</opt>
</optimization-report>
  QMC Execution time = 0.668 secs
BRANCH resetRun
  Continue with the same input as the previous block.
 SimpleFixedNodeBranch::resetRun detected changes in <parameter>'s 
 BranchMode : 0000001100 0000001100
 iParam (old):                100                 1                12                 0                12                12                 1                 0
 iParam (new):                100                 1                12                 0                12                12                 1                 0
 vParam (old):                0.5               0.5     -0.4930033118     -0.4930033118                 1                 1                 1                 1      0.9351583777     -0.4930033118                 1                 1                10                 1                 1                 1                 1
 vParam (new):                0.5               0.5     -0.4930033118     -0.4930033118                 1                 1                 1                 1      0.9351583777     -0.4930033118                 1                 1                10                 1                 1                 1                 1

=========================================================
  Start QMCFixedSampleLinearOptimize
  File Root H_wopos.s013 append = no 
=========================================================
  Skip QMCDriver::putQMCInfo 
  Resetting Properties of the walkers 1 x 12

=========================================================
  Start VMC
  File Root H_wopos.s013 append = no 
=========================================================
Using existing walkers 
  Resetting Properties of the walkers 1 x 12

<vmc function="put">
  qmc_counter=8  my_counter=0
  time step      = 0.5
  blocks         = 20
  steps          = 267
  substeps       = 4
  current        = 0
  target samples = 64000
  walkers/mpi    = 12

  stepsbetweensamples = 1
  SpinMoves      = no
<parameter name="blocks">20</parameter>
<parameter name="blocks_between_recompute">0</parameter>
<parameter name="check_properties">100</parameter>
<parameter name="checkproperties">100</parameter>
<parameter name="current">0</parameter>
<parameter name="dmcwalkersperthread">5334</parameter>
<parameter name="maxcpusecs">360000</parameter>
<parameter name="record_configs">0</parameter>
<parameter name="record_walkers">1</parameter>
<parameter name="recordconfigs">0</parameter>
<parameter name="recordwalkers">1</parameter>
<parameter name="rewind">0</parameter>
<parameter name="samples">64000</parameter>
<parameter name="samplesperthread">5334</parameter>
<parameter name="spinmass">1</parameter>
<parameter name="spinmoves">no</parameter>
<parameter name="steps">267</parameter>
<parameter name="stepsbetweensamples">1</parameter>
<parameter name="store_configs">0</parameter>
<parameter name="storeconfigs">0</parameter>
<parameter name="sub_steps">4</parameter>
<parameter name="substeps">4</parameter>
<parameter name="tau">0.5</parameter>
<parameter name="time_step">0.5</parameter>
<parameter name="timestep">0.5</parameter>
<parameter name="use_drift">no</parameter>
<parameter name="usedrift">no</parameter>
<parameter name="walkers">1</parameter>
<parameter name="warmup_steps">100</parameter>
<parameter name="warmupsteps">100</parameter>
  DumpConfig==false Nothing (configurations, state) will be saved.
  Walker Samples are dumped every 1 steps.
</vmc>
    Restarting, cummulative properties:
      energy     = -0.522037963
      variance   = 0
      r2accepted = 1e-10
      r2proposed = 1e-10
  Set drift_modifier UNR parameter a = 1
 Using QMCCostFunction::QMCCostFunction
 Using Default Cost Function: Cost = <|E-E_ff|^2>
  Set drift_modifier UNR parameter a = 1.0000000000e+00
  EstimatorManagerBase::add replace LocalEnergy estimator.
<optimization-report>
<vmc stage="main" blocks="20">
  Cannot make clones again. Use existing 12 clones
  Initial partition of walkers 0 1 2 3 4 5 6 7 8 9 10 11 12 

  Using Particle by Particle moves
  Walker moves without drift
  Total Sample Size   =64008
  Walker distribution on root = 0 1 2 3 4 5 6 7 8 9 10 11 12 
===== Memory Usage after the buffer registration =====
Available memory on node 0, free + buffers : 21104 MB
Memory footprint by rank 0 on node 0       : 198 MB
==================================================
  Anonymous Buffer size per walker : 17408 Bytes.
MEMORY increase 0 MB VMC::resetRun
====================================================
  SimpleFixedNodeBranch::finalize after a VMC block
    QMC counter        = 8
    time step          = 0.5
    reference energy   = -0.521941
    reference variance = 0.0593751
====================================================
  Execution time = 1.5980e-01
</vmc>
<opt stage="setup">
  <log>
   Reading configurations from h5FileRoot H_wopos.s013
  QMCCostFunction is created with 12 threads.
  Using Nonlocal PP in Opt: no
   Number of samples loaded to each thread : 5334 5334 5334 5334 5334 5334 5334 5334 5334 5334 5334 5334 
  VMC Eavg = -5.2192e-01
  VMC Evar = 5.9419e-02
  Total weights = 6.4008e+04
  Execution time = 6.3033e-02
  </log>
</opt>
<opt stage="main" walkers="64008">
  <log>

*****************************************
Building overlap and Hamiltonian matrices
*****************************************

Among totally 72 optimized parameters, largest LM parameter change : 2.8371e-02 at parameter 0

******************************************************************************
Init Cost =  -4.6379e-01    New Cost =  -4.6398e-01  Delta Cost =  -1.9733e-04
******************************************************************************

The new set of parameters is valid. Updating the trial wave function!

*****************************************************************************
Applying the update for shift_i =   1.0000e-02     and shift_s =   3.9062e-03
*****************************************************************************
  Execution time = 4.3992e-01
  </log>
  <optVariables href="H_wopos.s013.opt.xml">
  ud_0  (9.238132e-01,0.000000e+00) 1 1  ON 0
  ud_1  (6.918804e-01,0.000000e+00) 1 1  ON 1
  ud_2  (4.400581e-01,0.000000e+00) 1 1  ON 2
  ud_3  (2.519537e-01,0.000000e+00) 1 1  ON 3
  ud_4  (7.439550e-02,0.000000e+00) 1 1  ON 4
  ud_5 (-6.134403e-02,0.000000e+00) 1 1  ON 5
  ud_6 (-1.486065e-01,0.000000e+00) 1 1  ON 6
  ud_7 (-1.916113e-01,0.000000e+00) 1 1  ON 7
  ud_8 (-1.851222e-01,0.000000e+00) 1 1  ON 8
  ud_9 (-1.625450e-01,0.000000e+00) 1 1  ON 9
  eH_0 (-4.603338e-01,0.000000e+00) 1 1  ON 10
  eH_1 (-3.553848e-01,0.000000e+00) 1 1  ON 11
  eH_2 (-1.936862e-01,0.000000e+00) 1 1  ON 12
  eH_3 (-4.406897e-02,0.000000e+00) 1 1  ON 13
  eH_4  (6.813229e-02,0.000000e+00) 1 1  ON 14
  eH_5  (1.338935e-01,0.000000e+00) 1 1  ON 15
  eH_6  (1.615232e-01,0.000000e+00) 1 1  ON 16
  eH_7  (1.694379e-01,0.000000e+00) 1 1  ON 17
  eH_8  (1.444858e-01,0.000000e+00) 1 1  ON 18
  eH_9  (1.054551e-01,0.000000e+00) 1 1  ON 19
 uuH_0  (0.000000e+00,0.000000e+00) 1 1  ON 20
 uuH_1  (0.000000e+00,0.000000e+00) 1 1  ON 21
 uuH_2  (0.000000e+00,0.000000e+00) 1 1  ON 22
 uuH_3  (0.000000e+00,0.000000e+00) 1 1  ON 23
 uuH_4  (0.000000e+00,0.000000e+00) 1 1  ON 24
 uuH_5  (0.000000e+00,0.000000e+00) 1 1  ON 25
 uuH_6  (0.000000e+00,0.000000e+00) 1 1  ON 26
 uuH_7  (0.000000e+00,0.000000e+00) 1 1  ON 27
 uuH_8  (0.000000e+00,0.000000e+00) 1 1  ON 28
 uuH_9  (0.000000e+00,0.000000e+00) 1 1  ON 29
uuH_10  (0.000000e+00,0.000000e+00) 1 1  ON 30
uuH_11  (0.000000e+00,0.000000e+00) 1 1  ON 31
uuH_12  (0.000000e+00,0.000000e+00) 1 1  ON 32
uuH_13  (0.000000e+00,0.000000e+00) 1 1  ON 33
uuH_14  (0.000000e+00,0.000000e+00) 1 1  ON 34
uuH_15  (0.000000e+00,0.000000e+00) 1 1  ON 35
uuH_16  (0.000000e+00,0.000000e+00) 1 1  ON 36
uuH_17  (0.000000e+00,0.000000e+00) 1 1  ON 37
uuH_18  (0.000000e+00,0.000000e+00) 1 1  ON 38
uuH_19  (0.000000e+00,0.000000e+00) 1 1  ON 39
uuH_20  (0.000000e+00,0.000000e+00) 1 1  ON 40
uuH_21  (0.000000e+00,0.000000e+00) 1 1  ON 41
uuH_22  (0.000000e+00,0.000000e+00) 1 1  ON 42
uuH_23  (0.000000e+00,0.000000e+00) 1 1  ON 43
uuH_24  (0.000000e+00,0.000000e+00) 1 1  ON 44
uuH_25  (0.000000e+00,0.000000e+00) 1 1  ON 45
 udH_0 (-3.562238e-03,0.000000e+00) 1 1  ON 46
 udH_1  (7.217789e-04,0.000000e+00) 1 1  ON 47
 udH_2  (1.713386e-02,0.000000e+00) 1 1  ON 48
 udH_3  (3.282197e-03,0.000000e+00) 1 1  ON 49
 udH_4  (4.992534e-04,0.000000e+00) 1 1  ON 50
 udH_5  (1.723219e-03,0.000000e+00) 1 1  ON 51
 udH_6  (1.082502e-02,0.000000e+00) 1 1  ON 52
 udH_7 (-4.607851e-02,0.000000e+00) 1 1  ON 53
 udH_8  (3.570879e-02,0.000000e+00) 1 1  ON 54
 udH_9  (2.110738e-03,0.000000e+00) 1 1  ON 55
udH_10  (7.091184e-03,0.000000e+00) 1 1  ON 56
udH_11 (-6.903362e-03,0.000000e+00) 1 1  ON 57
udH_12 (-2.100424e-02,0.000000e+00) 1 1  ON 58
udH_13  (4.492412e-03,0.000000e+00) 1 1  ON 59
udH_14  (5.080657e-03,0.000000e+00) 1 1  ON 60
udH_15  (3.762400e-03,0.000000e+00) 1 1  ON 61
udH_16  (2.749792e-03,0.000000e+00) 1 1  ON 62
udH_17  (2.593430e-03,0.000000e+00) 1 1  ON 63
udH_18  (1.375837e-02,0.000000e+00) 1 1  ON 64
udH_19  (1.338242e-02,0.000000e+00) 1 1  ON 65
udH_20 (-1.088396e-02,0.000000e+00) 1 1  ON 66
udH_21  (1.045308e-03,0.000000e+00) 1 1  ON 67
udH_22 (-3.378783e-03,0.000000e+00) 1 1  ON 68
udH_23  (1.336668e-02,0.000000e+00) 1 1  ON 69
udH_24 (-5.842331e-03,0.000000e+00) 1 1  ON 70
udH_25  (1.970461e-03,0.000000e+00) 1 1  ON 71
  </optVariables>
   Restore the number of walkers to 12, removing 0 walkers.
</opt>
</optimization-report>
  QMC Execution time = 0.6635 secs
BRANCH resetRun
  Continue with the same input as the previous block.
 SimpleFixedNodeBranch::resetRun detected changes in <parameter>'s 
 BranchMode : 0000001100 0000001100
 iParam (old):                100                 1                13                 0                12                12                 1                 0
 iParam (new):                100                 1                13                 0                12                12                 1                 0
 vParam (old):                0.5               0.5     -0.4930033118     -0.4930033118                 1                 1                 1                 1      0.9351583777     -0.4930033118                 1                 1                10                 1                 1                 1                 1
 vParam (new):                0.5               0.5     -0.4930033118     -0.4930033118                 1                 1                 1                 1      0.9351583777     -0.4930033118                 1                 1                10                 1                 1                 1                 1

=========================================================
  Start QMCFixedSampleLinearOptimize
  File Root H_wopos.s014 append = no 
=========================================================
  Skip QMCDriver::putQMCInfo 
  Resetting Properties of the walkers 1 x 12

=========================================================
  Start VMC
  File Root H_wopos.s014 append = no 
=========================================================
Using existing walkers 
  Resetting Properties of the walkers 1 x 12

<vmc function="put">
  qmc_counter=9  my_counter=0
  time step      = 0.5
  blocks         = 20
  steps          = 267
  substeps       = 4
  current        = 0
  target samples = 64000
  walkers/mpi    = 12

  stepsbetweensamples = 1
  SpinMoves      = no
<parameter name="blocks">20</parameter>
<parameter name="blocks_between_recompute">0</parameter>
<parameter name="check_properties">100</parameter>
<parameter name="checkproperties">100</parameter>
<parameter name="current">0</parameter>
<parameter name="dmcwalkersperthread">5334</parameter>
<parameter name="maxcpusecs">360000</parameter>
<parameter name="record_configs">0</parameter>
<parameter name="record_walkers">1</parameter>
<parameter name="recordconfigs">0</parameter>
<parameter name="recordwalkers">1</parameter>
<parameter name="rewind">0</parameter>
<parameter name="samples">64000</parameter>
<parameter name="samplesperthread">5334</parameter>
<parameter name="spinmass">1</parameter>
<parameter name="spinmoves">no</parameter>
<parameter name="steps">267</parameter>
<parameter name="stepsbetweensamples">1</parameter>
<parameter name="store_configs">0</parameter>
<parameter name="storeconfigs">0</parameter>
<parameter name="sub_steps">4</parameter>
<parameter name="substeps">4</parameter>
<parameter name="tau">0.5</parameter>
<parameter name="time_step">0.5</parameter>
<parameter name="timestep">0.5</parameter>
<parameter name="use_drift">no</parameter>
<parameter name="usedrift">no</parameter>
<parameter name="walkers">1</parameter>
<parameter name="warmup_steps">100</parameter>
<parameter name="warmupsteps">100</parameter>
  DumpConfig==false Nothing (configurations, state) will be saved.
  Walker Samples are dumped every 1 steps.
</vmc>
    Restarting, cummulative properties:
      energy     = -0.5220272081
      variance   = 0
      r2accepted = 1e-10
      r2proposed = 1e-10
  Set drift_modifier UNR parameter a = 1
 Using QMCCostFunction::QMCCostFunction
 Using Default Cost Function: Cost = <|E-E_ff|^2>
  Set drift_modifier UNR parameter a = 1.0000000000e+00
  EstimatorManagerBase::add replace LocalEnergy estimator.
<optimization-report>
<vmc stage="main" blocks="20">
  Cannot make clones again. Use existing 12 clones
  Initial partition of walkers 0 1 2 3 4 5 6 7 8 9 10 11 12 

  Using Particle by Particle moves
  Walker moves without drift
  Total Sample Size   =64008
  Walker distribution on root = 0 1 2 3 4 5 6 7 8 9 10 11 12 
===== Memory Usage after the buffer registration =====
Available memory on node 0, free + buffers : 21098 MB
Memory footprint by rank 0 on node 0       : 203 MB
==================================================
  Anonymous Buffer size per walker : 17408 Bytes.
MEMORY increase 0 MB VMC::resetRun
====================================================
  SimpleFixedNodeBranch::finalize after a VMC block
    QMC counter        = 9
    time step          = 0.5
    reference energy   = -0.524927
    reference variance = 0.354883
====================================================
  Execution time = 1.6806e-01
</vmc>
<opt stage="setup">
  <log>
   Reading configurations from h5FileRoot H_wopos.s014
  QMCCostFunction is created with 12 threads.
  Using Nonlocal PP in Opt: no
   Number of samples loaded to each thread : 5334 5334 5334 5334 5334 5334 5334 5334 5334 5334 5334 5334 
  VMC Eavg = -5.2493e-01
  VMC Evar = 3.5524e-01
  Total weights = 6.4008e+04
  Execution time = 6.8082e-02
  </log>
</opt>
<opt stage="main" walkers="64008">
  <log>

*****************************************
Building overlap and Hamiltonian matrices
*****************************************

Among totally 72 optimized parameters, largest LM parameter change : 9.5097e-02 at parameter 52

******************************************************************************
Init Cost =  -4.3692e-01    New Cost =  -2.2101e-01  Delta Cost =   2.1591e-01
******************************************************************************

The new set of parameters is valid. Updating the trial wave function!

*****************************************************************************
Applying the update for shift_i =   1.0000e-02     and shift_s =   3.9062e-03
*****************************************************************************
  Execution time = 4.3181e-01
  </log>
  <optVariables href="H_wopos.s014.opt.xml">
  ud_0  (9.506639e-01,0.000000e+00) 1 1  ON 0
  ud_1  (6.936270e-01,0.000000e+00) 1 1  ON 1
  ud_2  (4.320729e-01,0.000000e+00) 1 1  ON 2
  ud_3  (2.494920e-01,0.000000e+00) 1 1  ON 3
  ud_4  (7.715517e-02,0.000000e+00) 1 1  ON 4
  ud_5 (-5.234866e-02,0.000000e+00) 1 1  ON 5
  ud_6 (-1.368361e-01,0.000000e+00) 1 1  ON 6
  ud_7 (-1.787691e-01,0.000000e+00) 1 1  ON 7
  ud_8 (-1.746370e-01,0.000000e+00) 1 1  ON 8
  ud_9 (-1.499733e-01,0.000000e+00) 1 1  ON 9
  eH_0 (-4.978696e-01,0.000000e+00) 1 1  ON 10
  eH_1 (-3.930531e-01,0.000000e+00) 1 1  ON 11
  eH_2 (-2.292857e-01,0.000000e+00) 1 1  ON 12
  eH_3 (-7.061101e-02,0.000000e+00) 1 1  ON 13
  eH_4  (6.441968e-02,0.000000e+00) 1 1  ON 14
  eH_5  (1.373731e-01,0.000000e+00) 1 1  ON 15
  eH_6  (1.759244e-01,0.000000e+00) 1 1  ON 16
  eH_7  (1.884859e-01,0.000000e+00) 1 1  ON 17
  eH_8  (1.552917e-01,0.000000e+00) 1 1  ON 18
  eH_9  (1.179176e-01,0.000000e+00) 1 1  ON 19
 uuH_0  (0.000000e+00,0.000000e+00) 1 1  ON 20
 uuH_1  (0.000000e+00,0.000000e+00) 1 1  ON 21
 uuH_2  (0.000000e+00,0.000000e+00) 1 1  ON 22
 uuH_3  (0.000000e+00,0.000000e+00) 1 1  ON 23
 uuH_4  (0.000000e+00,0.000000e+00) 1 1  ON 24
 uuH_5  (0.000000e+00,0.000000e+00) 1 1  ON 25
 uuH_6  (0.000000e+00,0.000000e+00) 1 1  ON 26
 uuH_7  (0.000000e+00,0.000000e+00) 1 1  ON 27
 uuH_8  (0.000000e+00,0.000000e+00) 1 1  ON 28
 uuH_9  (0.000000e+00,0.000000e+00) 1 1  ON 29
uuH_10  (0.000000e+00,0.000000e+00) 1 1  ON 30
uuH_11  (0.000000e+00,0.000000e+00) 1 1  ON 31
uuH_12  (0.000000e+00,0.000000e+00) 1 1  ON 32
uuH_13  (0.000000e+00,0.000000e+00) 1 1  ON 33
uuH_14  (0.000000e+00,0.000000e+00) 1 1  ON 34
uuH_15  (0.000000e+00,0.000000e+00) 1 1  ON 35
uuH_16  (0.000000e+00,0.000000e+00) 1 1  ON 36
uuH_17  (0.000000e+00,0.000000e+00) 1 1  ON 37
uuH_18  (0.000000e+00,0.000000e+00) 1 1  ON 38
uuH_19  (0.000000e+00,0.000000e+00) 1 1  ON 39
uuH_20  (0.000000e+00,0.000000e+00) 1 1  ON 40
uuH_21  (0.000000e+00,0.000000e+00) 1 1  ON 41
uuH_22  (0.000000e+00,0.000000e+00) 1 1  ON 42
uuH_23  (0.000000e+00,0.000000e+00) 1 1  ON 43
uuH_24  (0.000000e+00,0.000000e+00) 1 1  ON 44
uuH_25  (0.000000e+00,0.000000e+00) 1 1  ON 45
 udH_0 (-1.820603e-02,0.000000e+00) 1 1  ON 46
 udH_1  (7.308479e-02,0.000000e+00) 1 1  ON 47
 udH_2  (1.458479e-02,0.000000e+00) 1 1  ON 48
 udH_3 (-5.081476e-02,0.000000e+00) 1 1  ON 49
 udH_4 (-2.620614e-02,0.000000e+00) 1 1  ON 50
 udH_5 (-1.580471e-02,0.000000e+00) 1 1  ON 51
 udH_6  (1.059218e-01,0.000000e+00) 1 1  ON 52
 udH_7 (-5.557869e-02,0.000000e+00) 1 1  ON 53
 udH_8  (4.442612e-02,0.000000e+00) 1 1  ON 54
 udH_9  (2.257090e-02,0.000000e+00) 1 1  ON 55
udH_10 (-6.178929e-02,0.000000e+00) 1 1  ON 56
udH_11  (3.264010e-02,0.000000e+00) 1 1  ON 57
udH_12 (-2.970335e-02,0.000000e+00) 1 1  ON 58
udH_13 (-1.042295e-02,0.000000e+00) 1 1  ON 59
udH_14  (1.084806e-02,0.000000e+00) 1 1  ON 60
udH_15  (1.721784e-03,0.000000e+00) 1 1  ON 61
udH_16 (-5.301001e-02,0.000000e+00) 1 1  ON 62
udH_17 (-3.414993e-04,0.000000e+00) 1 1  ON 63
udH_18  (4.658852e-02,0.000000e+00) 1 1  ON 64
udH_19 (-2.497950e-03,0.000000e+00) 1 1  ON 65
udH_20  (2.016903e-02,0.000000e+00) 1 1  ON 66
udH_21 (-1.803522e-02,0.000000e+00) 1 1  ON 67
udH_22  (4.771078e-03,0.000000e+00) 1 1  ON 68
udH_23  (7.852787e-03,0.000000e+00) 1 1  ON 69
udH_24 (-2.180554e-03,0.000000e+00) 1 1  ON 70
udH_25 (-1.267020e-04,0.000000e+00) 1 1  ON 71
  </optVariables>
   Restore the number of walkers to 12, removing 0 walkers.
</opt>
</optimization-report>
  QMC Execution time = 0.6687 secs
  Total Execution time = 7.612 secs

=========================================================
  A new xml input file : H_wopos.s014.cont.xml

Use --enable-timers=<value> command line option to increase or decrease level of timing information
Stack timer profile
Timer                           Inclusive_time  Exclusive_time  Calls       Time_per_call
Total                              7.6203     0.0002              1       7.620326012
  QMCFixedSampleLinearOptimize     7.5494     0.0133              2       3.774697179
    VMC                            7.5361     7.5361             14       0.538293371
  Startup                          0.0079     0.0079              1       0.007936231
  VMC                              0.0628     0.0628              1       0.062809034
