  Input file(s): H_wpos.qmc.in-wfj.xml 

=====================================================
                    QMCPACK 3.10.9

       (c) Copyright 2003-  QMCPACK developers

                    Please cite:
 J. Kim et al. J. Phys. Cond. Mat. 30 195901 (2018)
      https://doi.org/10.1088/1361-648X/aab9c3

  Git branch: multipartmultidetfast
  Last git commit: 749cc914e967d23c37e73c4bf85e85d07af883e5
  Last git commit date: Tue Feb 23 04:02:38 2021 -0500
  Last git commit subject: APP_ABORT -> throw std::runtime_error per #125
=====================================================
  Global options 

  Total number of MPI ranks = 1
  Number of MPI groups      = 1
  MPI group ID              = 0
  Number of ranks in group  = 1
  MPI ranks per node        = 1
  OMP 1st level threads     = 12
  OMP nested threading disabled or only 1 thread on the 2nd level

  Precision used in this calculation, see definitions in the manual:
  Base precision      = double
  Full precision      = double

  CPU only build
  Timer build option is enabled. Current timer level is coarse

  Input XML = H_wpos.qmc.in-wfj.xml

  Project = Ps
  date    = 2021-02-25 16:27:59 EST
  host    = positron


 Random Number
 -------------
  Offset for the random number seeds based on time: 607

  Range of prime numbers to use as seeds over processors and threads = 4483-4591


 Particle Set
 ------------
  Name: ion0  Offload : no

  All the species have the same mass 1
  Particle set size: 1


 Particle Set
 ------------
  Name: e  Offload : no

  All the species have the same mass 1
  Particle set size: 3


 Many-body wavefunction
 -------------------
  Name: psi0   Tasking: no

WARNING !!!!!!! Deprecated input style: creating SPO set inside determinantset. Support for this usage will soon be removed. SPO sets should be built outside.
WARNING !!!!!!! Deprecated input style: missing basisset element. LCAO needs an explicit basisset XML element. Fallback on loading an implicit one.
  LCAO: SoaAtomicBasisSet<MultiQuintic,1>
Reading BasisSet from HDF5 file:H_wpos.h5
<input node="atomicBasisSet" name="H" expandYlm="natural" angular="spherical" elementType="H" normalized="no" type="Numerical" expM="0" />
  AO BasisSet for H
   Spherical Harmonics contain (-1)^m factor
   Angular momentum m expanded as -l, ... ,l
   Grid is created by the input paremters in h5
    Using log grid ri = 1e-06 rf = 100 npts = 1001
   R(n,l,m,s) 0 0 0 0
   R(n,l,m,s) 1 0 0 0
   R(n,l,m,s) 2 0 0 0
   R(n,l,m,s) 3 0 0 0
   R(n,l,m,s) 4 0 0 0
Expanding Ylm as -l,-l+1,...,l-1,l
   Adding 1 spherical orbitals
   Adding 1 spherical orbitals
   Adding 1 spherical orbitals
   Adding 1 spherical orbitals
   Adding 1 spherical orbitals
  Setting cutoff radius 37910.2

   Maximum Angular Momentum  = 0
   Number of Radial functors = 5
   Basis size                = 5

  Created SPOSet builder named 'LCAOBSet' of type molecularorbital

   Single Slater determinant
   -------------------------


     Determinant
     -----------
      Name: updet   Spin group: 0   SPO name: updet

WARNING !!!!!!! Deprecated input style: creating SPO set inside determinantset. Support for this usage will soon be removed. SPO sets should be built outside.
      Create a new SPO set updet

     Single particle orbitals (SPO)
     ------------------------------
      Name:    Type: LCAO   Builder class name: LCAOrbitalBuilder

WARNING SPOSet object name not given in the input!
WARNING SPOSet object doesn't have a name.
      Setting delay_rank to default value 1
      Using rank-1 Sherman-Morrison Fahy update (SM1)
      Running on CPU.


     Determinant
     -----------
      Name: downdet   Spin group: 1   SPO name: downdet

WARNING !!!!!!! Deprecated input style: creating SPO set inside determinantset. Support for this usage will soon be removed. SPO sets should be built outside.
      Create a new SPO set downdet

     Single particle orbitals (SPO)
     ------------------------------
      Name:    Type: LCAO   Builder class name: LCAOrbitalBuilder

WARNING SPOSet object name not given in the input!
WARNING SPOSet object doesn't have a name.
      Setting delay_rank to default value 1
      Using rank-1 Sherman-Morrison Fahy update (SM1)
      Running on CPU.


     Determinant
     -----------
      Name: downdet   Spin group: 2   SPO name: downdet

WARNING !!!!!!! Deprecated input style: creating SPO set inside determinantset. Support for this usage will soon be removed. SPO sets should be built outside.
      Create a new SPO set downdet

     Single particle orbitals (SPO)
     ------------------------------
      Name:    Type: LCAO   Builder class name: LCAOrbitalBuilder

WARNING SPOSet object name not given in the input!
WARNING SPOSet object doesn't have a name.
      Setting delay_rank to default value 1
      Using rank-1 Sherman-Morrison Fahy update (SM1)
      Running on CPU.

  Added a fermionic WaveFunctionComponent SlaterDet

   Jastrow
   -------
    Name: J2   Type: Two-Body   Function: Bspline

    Radial function for species: u - d
     Number of parameters: 10
     Cusp: -0.5
     Cutoff radius: 10

     Name                        Value Type Recompute Use Index
     ---- ---------------------------- ---- --------- --- -----
     ud_0  (6.263401e-01,0.000000e+00)    1         1  ON     0
     ud_1  (5.479249e-01,0.000000e+00)    1         1  ON     1
     ud_2  (3.094804e-01,0.000000e+00)    1         1  ON     2
     ud_3  (1.281290e-01,0.000000e+00)    1         1  ON     3
     ud_4 (-3.947742e-02,0.000000e+00)    1         1  ON     4
     ud_5 (-1.602593e-01,0.000000e+00)    1         1  ON     5
     ud_6 (-2.322905e-01,0.000000e+00)    1         1  ON     6
     ud_7 (-2.560983e-01,0.000000e+00)    1         1  ON     7
     ud_8 (-2.300326e-01,0.000000e+00)    1         1  ON     8
     ud_9 (-1.772598e-01,0.000000e+00)    1         1  ON     9

    Radial function for species: u - p
     Number of parameters: 10
     Cusp: 0.5
     Cutoff radius: 10

     Name                        Value Type Recompute Use Index
     ---- ---------------------------- ---- --------- --- -----
     up_0  (6.263401e-01,0.000000e+00)    1         1  ON     0
     up_1  (5.479249e-01,0.000000e+00)    1         1  ON     1
     up_2  (3.094804e-01,0.000000e+00)    1         1  ON     2
     up_3  (1.281290e-01,0.000000e+00)    1         1  ON     3
     up_4 (-3.947742e-02,0.000000e+00)    1         1  ON     4
     up_5 (-1.602593e-01,0.000000e+00)    1         1  ON     5
     up_6 (-2.322905e-01,0.000000e+00)    1         1  ON     6
     up_7 (-2.560983e-01,0.000000e+00)    1         1  ON     7
     up_8 (-2.300326e-01,0.000000e+00)    1         1  ON     8
     up_9 (-1.772598e-01,0.000000e+00)    1         1  ON     9

    Radial function for species: d - p
     Number of parameters: 10
     Cusp: 0.5
     Cutoff radius: 10

     Name                        Value Type Recompute Use Index
     ---- ---------------------------- ---- --------- --- -----
     dp_0  (6.263401e-01,0.000000e+00)    1         1  ON     0
     dp_1  (5.479249e-01,0.000000e+00)    1         1  ON     1
     dp_2  (3.094804e-01,0.000000e+00)    1         1  ON     2
     dp_3  (1.281290e-01,0.000000e+00)    1         1  ON     3
     dp_4 (-3.947742e-02,0.000000e+00)    1         1  ON     4
     dp_5 (-1.602593e-01,0.000000e+00)    1         1  ON     5
     dp_6 (-2.322905e-01,0.000000e+00)    1         1  ON     6
     dp_7 (-2.560983e-01,0.000000e+00)    1         1  ON     7
     dp_8 (-2.300326e-01,0.000000e+00)    1         1  ON     8
     dp_9 (-1.772598e-01,0.000000e+00)    1         1  ON     9

  QMCHamiltonian::addOperator Kinetic to H, physical Hamiltonian 

 Hamiltonian and observables
 ---------------------------
  Name: h0

  QMCHamiltonian::addOperator ElecElec to H, physical Hamiltonian 
QMCHamiltonian::addOperatorType added type coulomb named ElecElec
  CoulombAA for ion0 is not created.  Number of particles == 1 and nonPeriodic
  QMCHamiltonian::addOperator IonElec to H, physical Hamiltonian 
QMCHamiltonian::addOperatorType added type coulomb named IonElec

  QMCHamiltonian::add2WalkerProperty added
    3 to P::PropertyList 
    0 to P::Collectables 
    starting Index of the observables in P::PropertyList = 9
ParticleSetPool::randomize 1 ParticleSet.
<init source="ion0" target="e">
</init>
  Initialization Execution time = 0.008663 secs
=========================================================
 Summary of QMC systems 
=========================================================
ParticleSetPool has: 

  ParticleSet 'e' contains 3 particles :  u(1) d(1) p(1)

    u -3.0559773460e-02  3.0408915070e-01  1.0084954370e+00
    d  3.1082001634e-01 -1.4279798624e+00  1.2811221912e-01
    p -6.2330630423e-01 -1.2997222464e-02  6.8935302195e-02

  Distance table for dissimilar particles (A-B):
    source: ion0  target: e
    Using structure-of-arrays (SoA) data layout
    Distance computations use open boundary conditions in 3D.

  Distance table for similar particles (A-A):
    source/target: e
    Using structure-of-arrays (SoA) data layout
    Distance computations use open boundary conditions in 3D.


  ParticleSet 'ion0' contains 1 particles :  H(1)

    H  0.0000000000e+00  0.0000000000e+00  0.0000000000e+00


  Hamiltonian h0
  Kinetic         Kinetic energy
  ElecElec        CoulombAB source=e

  IonElec         CoulombAA source/target ion0



=========================================================
  Start VMC
  File Root Ps.s000 append = no 
=========================================================
Resetting walkers
  Adding 12 walkers to 0 existing sets
  Total number of walkers: 1.2000000000e+01
  Total weight: 1.2000000000e+01
  Resetting Properties of the walkers 1 x 12

<vmc function="put">
  qmc_counter=0  my_counter=0
  time step      = 5.0000000000e-01
  blocks         = 20
  steps          = 50
  substeps       = 8
  current        = 0
  target samples = 0.0000000000e+00
  walkers/mpi    = 12

  stepsbetweensamples = 1050
  SpinMoves      = no
<parameter name="blocks">20</parameter>
<parameter name="blocks_between_recompute">0</parameter>
<parameter name="check_properties">100</parameter>
<parameter name="checkproperties">100</parameter>
<parameter name="current">0</parameter>
<parameter name="dmcwalkersperthread">0.0000000000e+00</parameter>
<parameter name="maxcpusecs">3.6000000000e+05</parameter>
<parameter name="record_configs">0</parameter>
<parameter name="record_walkers">1050</parameter>
<parameter name="recordconfigs">0</parameter>
<parameter name="recordwalkers">1050</parameter>
<parameter name="rewind">0</parameter>
<parameter name="samples">0.0000000000e+00</parameter>
<parameter name="samplesperthread">0.0000000000e+00</parameter>
<parameter name="spinmass">1.0000000000e+00</parameter>
<parameter name="spinmoves">no</parameter>
<parameter name="steps">50</parameter>
<parameter name="stepsbetweensamples">1050</parameter>
<parameter name="store_configs">0</parameter>
<parameter name="storeconfigs">0</parameter>
<parameter name="sub_steps">8</parameter>
<parameter name="substeps">8</parameter>
<parameter name="tau">5.0000000000e-01</parameter>
<parameter name="time_step">5.0000000000e-01</parameter>
<parameter name="timestep">5.0000000000e-01</parameter>
<parameter name="use_drift">no</parameter>
<parameter name="usedrift">no</parameter>
<parameter name="walkers">12</parameter>
<parameter name="warmup_steps">100</parameter>
<parameter name="warmupsteps">100</parameter>
  DumpConfig==false Nothing (configurations, state) will be saved.
  Walker Samples are dumped every 1050 steps.
</vmc>
  Set drift_modifier UNR parameter a = 1.0000000000e+00
  CloneManager::makeClones makes 12 clones for W/Psi/H.
  Cloning methods for both Psi and H are used
===== Memory Usage before cloning =====
Available memory on node 0, free + buffers : 25094 MB
Memory footprint by rank 0 on node 0       : 31 MB
==================================================
===== Memory Usage after cloning =====
Available memory on node 0, free + buffers : 25094 MB
Memory footprint by rank 0 on node 0       : 31 MB
==================================================
  Initial partition of walkers 0 1 2 3 4 5 6 7 8 9 10 11 12 

  Using Particle by Particle moves
  Walker moves without drift
  Total Sample Size   =0
  Walker distribution on root = 0 1 2 3 4 5 6 7 8 9 10 11 12 
