[Molden Format]
Generated by Polyquant
[Atoms] (AU)
  Li     1     3             0             0             0
[GTO]
   1   0
   s     9  1.00
    6.6010000000E+03    1.1730207346E-04
    9.8970000000E+02    9.1335204205E-04
    2.2570000000E+02    4.7402068659E-03
    6.4290000000E+01    1.9246563284E-02
    2.1180000000E+01    6.3209776285E-02
    7.7240000000E+00    1.6362937440E-01
    3.0030000000E+00    3.1563982804E-01
    1.2120000000E+00    3.9495307359E-01
    4.9300000000E-01    1.9742640770E-01
   s     9  1.00
    6.6010000000E+03   -6.5848478217E-05
    9.8970000000E+02   -5.1947132816E-04
    2.2570000000E+02   -2.7107623533E-03
    6.4290000000E+01   -1.1047911345E-02
    2.1180000000E+01   -3.7032452500E-02
    7.7240000000E+00   -9.9116592712E-02
    3.0030000000E+00   -2.0983349234E-01
    1.2120000000E+00   -3.4349127012E-01
    4.9300000000E-01   -4.4298100421E-01
   s     1  1.00
    9.5150000000E-02    1.0000000000E+00
   s     1  1.00
    4.7910000000E-02    1.0000000000E+00
   s     1  1.00
    2.2200000000E-02    1.0000000000E+00
   p     3  1.00
    6.2500000000E+00    3.6476463857E-02
    1.3700000000E+00    2.0796321601E-01
    3.6720000000E-01    8.5166298610E-01
   p     1  1.00
    1.1920000000E-01    1.0000000000E+00
   p     1  1.00
    4.4740000000E-02    1.0000000000E+00
   p     1  1.00
    1.7950000000E-02    1.0000000000E+00
   d     1  1.00
    3.4400000000E-01    1.0000000000E+00
   d     1  1.00
    1.5300000000E-01    1.0000000000E+00
   d     1  1.00
    6.8000000000E-02    1.0000000000E+00
   f     1  1.00
    2.4600000000E-01    1.0000000000E+00
   f     1  1.00
    1.2920000000E-01    1.0000000000E+00
   g     1  1.00
    2.3800000000E-01    1.0000000000E+00
   s     1  1.00
    6.3600000000E-03    1.0000000000E+00
   p     1  1.00
    7.5600000000E-03    1.0000000000E+00
   d     1  1.00
    2.6600000000E-02    1.0000000000E+00
   f     1  1.00
    5.5200000000E-02    1.0000000000E+00
   g     1  1.00
    1.0500000000E-01    1.0000000000E+00

[5D]
[7F]
[9G]

[MO]
  Sym= A
  Ene=    -2.5313187152E+00
  Spin= Alpha
  Occup=     1.0000000000E+00
             1    9.9651625802E-01
             2   -1.6442538467E-05
             3    1.3971469030E-02
             4   -8.7259702356E-03
             5    3.5836307034E-03
             6    1.1464568065E-13
             7   -1.0152576826E-13
             8    2.6803977795E-13
             9   -6.6814565025E-14
            10    5.9122099459E-14
            11   -1.5615262327E-13
            12    4.3273911263E-14
            13   -3.8251940749E-14
            14    1.0116958892E-13
            15   -2.6777142741E-14
            16    2.3667764631E-14
            17   -6.2111339273E-14
            18   -6.2069080512E-05
            19   -4.4731737669E-05
            20    1.1814421891E-04
            21   -1.1838573227E-04
            22   -1.0464794946E-04
            23   -2.8084078703E-04
            24   -2.0239540055E-04
            25    5.3456109141E-04
            26   -5.3565385451E-04
            27   -4.7349521281E-04
            28   -5.7693784189E-05
            29   -4.1578563726E-05
            30    1.0981614377E-04
            31   -1.1004063266E-04
            32   -9.7271236531E-05
            33    2.2077360403E-16
            34   -3.2302450363E-17
            35    8.6352600036E-17
            36    2.3879207038E-16
            37    2.1041495786E-16
            38   -2.8755529998E-16
            39    1.5212204538E-16
            40   -1.7168153979E-16
            41    2.5365378649E-17
            42   -6.8001145398E-17
            43   -1.8553755200E-16
            44   -1.6328368587E-16
            45    2.2387691854E-16
            46   -1.1896409013E-16
            47    1.6824415242E-07
            48   -5.6350071511E-07
            49    1.4883023846E-06
            50   -3.6781700021E-08
            51   -3.2513457579E-08
            52   -1.5778441112E-06
            53    8.3144640860E-07
            54   -1.9358263858E-07
            55   -1.5654506777E-06
            56   -5.6904879375E-04
            57    9.4428792494E-15
            58   -8.3605861865E-15
            59    2.1991948670E-14
            60   -3.3633373851E-05
            61   -2.4238787551E-05
            62    6.4018810172E-05
            63   -6.4149679019E-05
            64   -5.6705586384E-05
            65    2.1523565326E-16
            66   -3.1369712243E-17
            67    8.3901559754E-17
            68    2.3292838931E-16
            69    2.0538344855E-16
            70   -2.8085649753E-16
            71    1.4928141644E-16
            72    1.6507741416E-08
            73   -5.5289434808E-08
            74    1.4602891436E-07
            75   -3.6089384593E-09
            76   -3.1901480248E-09
            77   -1.5481454909E-07
            78    8.1579669327E-08
            79   -1.8993897258E-08
            80   -1.5359853301E-07
  Sym= A
  Ene=    -1.2869314839E-01
  Spin= Alpha
  Occup=     1.0000000000E+00
             1    6.0495680757E-14
             2   -8.1076296706E-12
             3   -6.5835923332E-12
             4   -1.5423001803E-11
             5   -1.4087604049E-11
             6    3.4546527113E-02
             7   -3.0600085697E-02
             8    8.0820093554E-02
             9    1.0161183951E-01
            10   -9.0004155457E-02
            11    2.3771646708E-01
            12    1.9354479107E-01
            13   -1.7143509602E-01
            14    4.5278959791E-01
            15    1.0389492653E-01
            16   -9.2026432783E-02
            17    2.4305764960E-01
            18    2.2106934925E-14
            19    1.5896671091E-14
            20   -4.1427216227E-14
            21    4.1821275861E-14
            22    3.7184401199E-14
            23    5.9325068255E-14
            24    4.3162393055E-14
            25   -1.1457281533E-13
            26    1.1440541992E-13
            27    1.0084813150E-13
            28    2.3480580543E-13
            29    1.6867537898E-13
            30   -4.4517548209E-13
            31    4.4610303921E-13
            32    3.9468817808E-13
            33   -5.3509658484E-06
            34    7.8134256222E-07
            35   -2.0636602000E-06
            36   -5.7929712223E-06
            37   -5.1207400425E-06
            38    6.9855185323E-06
            39   -3.6810254287E-06
            40   -1.8748316910E-07
            41    2.7376100411E-08
            42   -7.2304993773E-08
            43   -2.0296982543E-07
            44   -1.7941668833E-07
            45    2.4475341291E-07
            46   -1.2897303648E-07
            47    1.2905345983E-16
            48   -2.3541582294E-16
            49   -4.4797258959E-18
            50   -5.7947147041E-18
            51   -7.1475879797E-17
            52   -3.2142826804E-17
            53    5.8983363725E-17
            54   -1.8647085467E-16
            55   -1.7063709952E-16
            56   -8.8559341654E-13
            57    1.4958555224E-03
            58   -1.3249756488E-03
            59    3.4994887581E-03
            60    2.3571947819E-13
            61    1.7020127913E-13
            62   -4.4972016342E-13
            63    4.5091911211E-13
            64    3.9804719369E-13
            65   -3.6316849103E-06
            66    5.3029491751E-07
            67   -1.4006001571E-06
            68   -3.9316726679E-06
            69   -3.4754313274E-06
            70    4.7410510479E-06
            71   -2.4983012192E-06
            72   -4.1331910174E-16
            73    1.5342239203E-15
            74   -3.7194599595E-15
            75    5.7667957446E-17
            76    1.4840281726E-16
            77    3.9327554723E-15
            78   -2.0967229235E-15
            79    5.5281763038E-16
            80    4.0308586409E-15
  Sym= A
  Ene=    -4.2388233509E-02
  Spin= Alpha
  Occup=     0.0000000000E+00
             1   -4.3143315012E-03
             2    1.9667337041E-01
             3    1.2114522672E-01
             4    2.8334824687E-01
             5    5.5467304086E-01
             6    8.3280661789E-13
             7   -7.3784665812E-13
             8    1.9489687222E-12
             9    2.3976423461E-12
            10   -2.1234906976E-12
            11    5.6085726484E-12
            12    5.4025657748E-12
            13   -4.7853878288E-12
            14    1.2639573401E-11
            15    5.0696212026E-12
            16   -4.4906309447E-12
            17    1.1859946254E-11
            18   -1.2185843878E-03
            19   -8.7820532726E-04
            20    2.3194914358E-03
            21   -2.3242329979E-03
            22   -2.0545230632E-03
            23   -4.2653806939E-03
            24   -3.0739603146E-03
            25    8.1188583152E-03
            26   -8.1354550876E-03
            27   -7.1913960958E-03
            28   -1.3921012319E-02
            29   -1.0032548670E-02
            30    2.6497687951E-02
            31   -2.6551855185E-02
            32   -2.3470710078E-02
            33   -6.8155487475E-15
            34    1.1347303237E-15
            35   -2.6968644537E-15
            36   -7.2251319736E-15
            37   -6.5838263960E-15
            38    8.3577429749E-15
            39   -4.4755849272E-15
            40   -1.9934441405E-14
            41    2.7722964236E-15
            42   -7.6862080532E-15
            43   -2.1681055041E-14
            44   -1.8974865195E-14
            45    2.6482877968E-14
            46   -1.3887476097E-14
            47   -4.4221732540E-06
            48    1.4811200005E-05
            49   -3.9118928682E-05
            50    9.6677981220E-07
            51    8.5459221286E-07
            52    4.1472466815E-05
            53   -2.1853954611E-05
            54    5.0881766448E-06
            55    4.1146714572E-05
            56    1.5116369950E-01
            57    1.1344191436E-12
            58   -1.0047308128E-12
            59    2.6541359167E-12
            60   -2.0074287276E-02
            61   -1.4467070318E-02
            62    3.8210022942E-02
            63   -3.8288132823E-02
            64   -3.3845080077E-02
            65   -6.8339327061E-14
            66    1.0026445902E-14
            67   -2.6345515386E-14
            68   -7.3962678044E-14
            69   -6.5442011846E-14
            70    8.9102364808E-14
            71   -4.6960149064E-14
            72    6.7591946976E-05
            73   -2.2638593920E-04
            74    5.9792423349E-04
            75   -1.4777017100E-05
            76   -1.3062254285E-05
            77   -6.3389754696E-04
            78    3.3403289659E-04
            79   -7.7771662533E-05
            80   -6.2891849547E-04
  Sym= A
  Ene=     1.1462634565E-02
  Spin= Alpha
  Occup=     0.0000000000E+00
             1   -3.8282950131E-17
             2   -1.3568499446E-16
             3   -3.0809529103E-16
             4    5.6092955347E-16
             5   -1.4868757624E-15
             6   -8.3173735500E-03
             7    1.7396759026E-02
             8    1.0142016074E-02
             9   -5.1814075056E-03
            10    1.0837519470E-02
            11    6.3180904272E-03
            12   -8.5953570164E-02
            13    1.7978193940E-01
            14    1.0480982788E-01
            15    1.0895282554E-01
            16   -2.2788757048E-01
            17   -1.3285459662E-01
            18    3.7683572318E-14
            19   -6.4308547728E-14
            20    2.4377442469E-14
            21    1.0242400886E-13
            22   -8.3167579468E-14
            23   -1.8161299816E-13
            24    3.1125034832E-13
            25   -1.1723964157E-13
            26   -4.9228152889E-13
            27    3.9919745017E-13
            28    3.5566243714E-13
            29   -6.1075805759E-13
            30    2.3010709220E-13
            31    9.6613360575E-13
            32   -7.8333305912E-13
            33   -5.1169728991E-05
            34   -3.8266234942E-05
            35    2.4194324637E-04
            36    1.3817581449E-04
            37   -3.4441952386E-04
            38    1.7032858519E-04
            39    5.1553232694E-04
            40    2.2807525010E-04
            41    1.7056140959E-04
            42   -1.0783966911E-03
            43   -6.1588138279E-04
            44    1.5351570273E-03
            45   -7.5919367627E-04
            46   -2.2978461431E-03
            47    1.9156371663E-15
            48   -1.4595797492E-15
            49   -8.6430092497E-16
            50    2.3361961237E-15
            51    1.9373516474E-15
            52   -3.6941091056E-15
            53   -4.3302761284E-15
            54    6.5777859139E-15
            55    3.7788236947E-16
            56    1.5169910818E-15
            57   -4.2815651042E-01
            58    8.9553939019E-01
            59    5.2208430757E-01
            60   -1.2931960237E-12
            61    2.2227201723E-12
            62   -8.3660507774E-13
            63   -3.5141773460E-12
            64    2.8484844661E-12
            65   -2.7346234176E-04
            66   -2.0450321751E-04
            67    1.2929981852E-03
            68    7.3844209360E-04
            69   -1.8406540625E-03
            70    9.1027360692E-04
            71    2.7551187032E-03
            72   -7.9334605083E-15
            73    5.5500096758E-15
            74    2.8318133316E-15
            75   -8.3371441856E-15
            76   -6.9443814243E-15
            77    1.3118080946E-14
            78    1.6487723645E-14
            79   -2.4611256360E-14
            80   -1.1465800315E-15
  Sym= A
  Ene=     1.1462634565E-02
  Spin= Alpha
  Occup=     0.0000000000E+00
             1   -7.3692610977E-17
             2   -2.5133960409E-16
             3   -8.7206208313E-16
             4    1.6240867982E-15
             5   -2.5156294831E-15
             6    1.8441870922E-02
             7    1.0987435444E-02
             8   -3.7229123902E-03
             9    1.1488584448E-02
            10    6.8447545529E-03
            11   -2.3192328786E-03
            12    1.9058235592E-01
            13    1.1354657785E-01
            14   -3.8473396610E-02
            15   -2.4157793721E-01
            16   -1.4392910572E-01
            17    4.8768018138E-02
            18   -8.3615503390E-14
            19    1.4029767988E-14
            20   -1.0320935896E-13
            21    2.8400148093E-15
            22   -7.6377691195E-14
            23    4.0198667784E-13
            24   -6.7527050896E-14
            25    4.9615113496E-13
            26   -1.3246970782E-14
            27    3.6571701037E-13
            28   -7.8817343770E-13
            29    1.3254785964E-13
            30   -9.7316435890E-13
            31    2.5497438351E-14
            32   -7.1685046176E-13
            33    1.1345715465E-04
            34    2.0932365952E-04
            35   -4.8932426479E-04
            36    3.1137828766E-04
            37    6.4823844950E-05
            38    2.8843802513E-04
            39    1.2099475949E-04
            40   -5.0570463111E-04
            41   -9.3300369062E-04
            42    2.1810307827E-03
            43   -1.3878846387E-03
            44   -2.8893478510E-04
            45   -1.2856346128E-03
            46   -5.3930146935E-04
            47   -5.0739944231E-15
            48   -7.1137910062E-16
            49    1.9452465781E-17
            50   -4.8439801414E-15
            51   -4.4112672313E-15
            52    9.2386070914E-16
            53   -3.3115695705E-15
            54    2.7974380235E-15
            55   -2.8521487082E-15
            56    2.1568733903E-15
            57    9.4933900132E-01
            58    5.6560427275E-01
            59   -1.9164573624E-01
            60    2.8682571942E-12
            61   -4.8027444507E-13
            62    3.5393769816E-12
            63   -9.1682525538E-14
            64    2.6037437743E-12
            65    6.0634011187E-04
            66    1.1186719032E-03
            67   -2.6150570262E-03
            68    1.6640743931E-03
            69    3.4643295541E-04
            70    1.5414765597E-03
            71    6.4662273813E-04
            72    1.8194430880E-14
            73    3.0194406326E-15
            74   -3.5393652400E-16
            75    1.7831189149E-14
            76    1.6007886413E-14
            77   -2.9899555809E-15
            78    1.2255294521E-14
            79   -9.8655007793E-15
            80    1.0274041282E-14
  Sym= A
  Ene=     1.6705237694E-02
  Spin= Alpha
  Occup=     0.0000000000E+00
             1   -1.9222672960E-02
             2   -1.1529721907E-01
             3   -2.8691232632E-01
             4    6.0766301939E-01
             5   -1.6186283011E+00
             6   -4.2670773859E-13
             7    3.7835637752E-13
             8   -9.9824777653E-13
             9   -2.6424624604E-12
            10    2.3410414846E-12
            11   -6.1823611694E-12
            12    7.8241955276E-13
            13   -6.9314127158E-13
            14    1.8307448611E-12
            15   -1.8717827011E-11
            16    1.6580641172E-11
            17   -4.3789991811E-11
            18   -2.0450575800E-04
            19   -1.4738252675E-04
            20    3.8926262227E-04
            21   -3.9005836262E-04
            22   -3.4479499375E-04
            23    3.6113675116E-03
            24    2.6026282784E-03
            25   -6.8739892768E-03
            26    6.8880412569E-03
            27    6.0887353527E-03
            28   -2.6716364926E-03
            29   -1.9253860658E-03
            30    5.0852760187E-03
            31   -5.0956714666E-03
            32   -4.5043567318E-03
            33    2.7001992809E-14
            34   -3.9524546485E-15
            35    1.0400523956E-14
            36    2.9348708742E-14
            37    2.5514817177E-14
            38   -3.5254720270E-14
            39    1.8357985045E-14
            40   -8.2709565966E-14
            41    1.2081281619E-14
            42   -3.1842869347E-14
            43   -8.9660916625E-14
            44   -7.8961324719E-14
            45    1.0800493147E-13
            46   -5.6697628310E-14
            47    3.8798833189E-06
            48   -1.2994906470E-05
            49    3.4321784815E-05
            50   -8.4822385958E-07
            51   -7.4979379610E-07
            52   -3.6386709190E-05
            53    1.9174009943E-05
            54   -4.4642148895E-06
            55   -3.6100903858E-05
            56    1.6484423960E+00
            57    3.0511592683E-11
            58   -2.7028930767E-11
            59    7.1382525217E-11
            60    1.6687597113E-02
            61    1.2026361760E-02
            62   -3.1763691520E-02
            63    3.1828623650E-02
            64    2.8135148850E-02
            65    1.3784226910E-13
            66   -2.0129333323E-14
            67    5.3137295158E-14
            68    1.4926223268E-13
            69    1.3187088859E-13
            70   -1.7997018969E-13
            71    9.4760467621E-14
            72   -2.5987962379E-05
            73    8.7041571283E-05
            74   -2.2989177232E-04
            75    5.6815135773E-06
            76    5.0222162274E-06
            77    2.4372290397E-04
            78   -1.2843000887E-04
            79    2.9901891134E-05
            80    2.4180854274E-04
  Sym= A
  Ene=     2.1062056450E-02
  Spin= Alpha
  Occup=     0.0000000000E+00
             1    1.0309237867E-12
             2    5.4211781091E-12
             3    1.4865025070E-11
             4   -3.0893164962E-11
             5    7.9278874509E-11
             6   -5.7416753700E-03
             7    5.0857719443E-03
             8   -1.3432399125E-02
             9   -4.7518012193E-02
            10    4.2089766085E-02
            11   -1.1116631719E-01
            12    4.8860189892E-02
            13   -4.3278619380E-02
            14    1.1430628338E-01
            15   -3.6549068413E-01
            16    3.2373865596E-01
            17   -8.5504951590E-01
            18    8.2503002118E-14
            19    5.9527889914E-14
            20   -1.5683040597E-13
            21    1.5707651458E-13
            22    1.3878891264E-13
            23   -3.7741193426E-13
            24   -2.7221981174E-13
            25    7.1792459063E-13
            26   -7.1936444952E-13
            27   -6.3585247792E-13
            28    8.6015493966E-13
            29    6.1987940788E-13
            30   -1.6367364362E-12
            31    1.6400263670E-12
            32    1.4497279899E-12
            33    2.4273158455E-04
            34   -3.5443417793E-05
            35    9.3612167307E-05
            36    2.6278192085E-04
            37    2.3228803543E-04
            38   -3.1687849077E-04
            39    1.6697941276E-04
            40   -9.9049573127E-04
            41    1.4463117394E-04
            42   -3.8199582591E-04
            43   -1.0723135654E-03
            44   -9.4787955984E-04
            45    1.2930611936E-03
            46   -6.8137978772E-04
            47   -3.8434089325E-16
            48    1.7889407033E-15
            49   -4.6359601960E-15
            50   -7.6434735956E-18
            51   -6.6209838252E-18
            52    4.8837598751E-15
            53   -2.6518573390E-15
            54    6.1802071736E-16
            55    4.7367064716E-15
            56   -8.6528709235E-11
            57    5.8651125851E-01
            58   -5.1951082416E-01
            59    1.3721175106E+00
            60   -1.8643324065E-12
            61   -1.3436245378E-12
            62    3.5486629884E-12
            63   -3.5559798590E-12
            64   -3.1430221032E-12
            65    9.6206599158E-04
            66   -1.4047989242E-04
            67    3.7103157685E-04
            68    1.0415354463E-03
            69    9.2067301236E-04
            70   -1.2559470578E-03
            71    6.6182245962E-04
            72    1.3816374588E-15
            73   -4.9710212258E-15
            74    1.3036911626E-14
            75   -2.8689780042E-16
            76   -2.3928757851E-16
            77   -1.3780648301E-14
            78    7.2956559923E-15
            79   -1.7161696360E-15
            80   -1.3737698831E-14
  Sym= A
  Ene=     3.7771566693E-02
  Spin= Alpha
  Occup=     0.0000000000E+00
             1   -7.5585781531E-17
             2   -8.9770619861E-17
             3   -2.0729717352E-16
             4    1.9463182086E-16
             5    3.8790983248E-16
             6   -1.6928583871E-02
             7    2.2207237834E-02
             8    1.5644218002E-02
             9   -9.8949927427E-02
            10    1.2980439408E-01
            11    9.1442630272E-02
            12    7.7880193524E-02
            13   -1.0216471698E-01
            14   -7.1971449875E-02
            15   -8.9112914854E-01
            16    1.1690001416E+00
            17    8.2351948479E-01
            18    3.3578913012E-15
            19   -5.0217298438E-15
            20    2.8513993621E-15
            21    7.2077511519E-15
            22   -4.8352384271E-15
            23   -1.6379221442E-13
            24    2.0954683835E-13
            25   -1.3341381682E-13
            26   -3.1524175525E-13
            27    2.1336115277E-13
            28    4.6929273003E-14
            29   -6.1182493048E-14
            30    3.6972055310E-14
            31    8.9659117813E-14
            32   -6.0931804919E-14
            33   -7.1002991254E-05
            34   -7.5702018989E-05
            35    3.2716158135E-04
            36    7.9554442652E-05
            37   -3.5101141464E-04
            38    1.1538942705E-04
            39    4.8580800722E-04
            40    3.4126549342E-04
            41    3.6385068300E-04
            42   -1.5724542940E-03
            43   -3.8236679393E-04
            44    1.6870850298E-03
            45   -5.5460240565E-04
            46   -2.3349651383E-03
            47    5.0279670887E-15
            48   -2.4011926432E-15
            49   -1.2503902212E-15
            50    5.2856465878E-15
            51    4.2781743575E-15
            52   -6.0944258996E-15
            53   -6.2474927351E-15
            54    1.0337302576E-14
            55    1.5069237220E-15
            56   -8.1806765524E-16
            57    7.0160242593E-01
            58   -9.2037538733E-01
            59   -6.4837208981E-01
            60   -2.3485268241E-12
            61    2.9791070737E-12
            62   -1.9191204299E-12
            63   -4.5082226575E-12
            64    3.0512469379E-12
            65   -5.5242000245E-04
            66   -5.8897954546E-04
            67    2.5453941922E-03
            68    6.1895230931E-04
            69   -2.7309515150E-03
            70    8.9775693175E-04
            71    3.7797007675E-03
            72   -2.2820175552E-14
            73    9.7694197167E-15
            74    5.9806977702E-15
            75   -2.3338862272E-14
            76   -1.9496248696E-14
            77    2.7143388227E-14
            78    2.8406854294E-14
            79   -4.5616215311E-14
            80   -6.0968988455E-15
  Sym= A
  Ene=     3.7771566693E-02
  Spin= Alpha
  Occup=     0.0000000000E+00
             1   -1.0861794004E-17
             2    4.5408684019E-17
             3   -1.8145326835E-16
             4    8.5880995338E-16
             5   -3.6276024917E-16
             6    2.4428345134E-02
             7    2.0507760218E-02
             8   -2.6772459409E-03
             9    1.4278707520E-01
            10    1.1987071102E-01
            11   -1.5648874919E-02
            12   -1.1238295306E-01
            13   -9.4346245773E-02
            14    1.2316708449E-02
            15    1.2859203443E+00
            16    1.0795387872E+00
            17   -1.4093156958E-01
            18   -5.3069796989E-15
            19   -2.7171484726E-16
            20   -6.9697927759E-15
            21    1.5411399719E-15
            22   -6.4728066907E-15
            23    2.3705709042E-13
            24   -5.9902093688E-15
            25    3.0560891319E-13
            26   -6.6667768397E-14
            27    2.8263158107E-13
            28   -6.7286752770E-14
            29    1.3349451850E-15
            30   -8.8574912098E-14
            31    1.8817358985E-14
            32   -8.1214696611E-14
            33    1.0245898825E-04
            34    1.9922696890E-04
            35   -4.3803094213E-04
            36    3.3178710773E-04
            37    1.3055861316E-06
            38    3.1503047711E-04
            39    2.1279110995E-04
            40   -4.9245414261E-04
            41   -9.5755528948E-04
            42    2.1053316622E-03
            43   -1.5946862101E-03
            44   -6.2751088010E-06
            45   -1.5141479157E-03
            46   -1.0227493497E-03
            47   -7.1956786429E-15
            48   -1.8419356462E-15
            49    1.2840210633E-16
            50   -7.3394157757E-15
            51   -6.7311374621E-15
            52    3.4981230298E-16
            53   -6.7181023782E-15
            54    6.5296873937E-15
            55   -4.5545624391E-15
            56   -5.3111430116E-16
            57   -1.0124288209E+00
            58   -8.4994081186E-01
            59    1.1095802586E-01
            60    3.3891582665E-12
            61   -8.9669912364E-14
            62    4.3651527318E-12
            63   -9.5273262932E-13
            64    4.0324748093E-12
            65    7.9715507108E-04
            66    1.5500327621E-03
            67   -3.4079839434E-03
            68    2.5813818774E-03
            69    1.0157767738E-05
            70    2.4510113428E-03
            71    1.6555649756E-03
            72    3.2810514425E-14
            73    8.1783786392E-15
            74    2.1455535609E-16
            75    3.2646957225E-14
            76    2.9504176347E-14
            77   -1.2241203008E-15
            78    3.0183897555E-14
            79   -2.8484325795E-14
            80    2.0532388114E-14
  Sym= A
  Ene=     7.1197467781E-02
  Spin= Alpha
  Occup=     0.0000000000E+00
             1   -5.5904438675E-15
             2   -1.0594023789E-14
             3   -8.6824882668E-14
             4    2.9493282875E-13
             5   -3.5512233861E-13
             6   -8.0644630094E-13
             7   -2.7963232463E-13
             8    2.3899532881E-13
             9   -1.9453640451E-12
            10   -6.7387411363E-13
            11    5.7531418589E-13
            12   -7.7740121032E-12
            13   -2.6954268571E-12
            14    2.3060551519E-12
            15    1.4556151441E-12
            16    5.0372704924E-13
            17   -4.3544127822E-13
            18   -1.6775082599E-02
            19    5.2203790254E-03
            20   -1.9789505507E-02
            21   -3.7357075398E-03
            22   -1.0397374018E-02
            23    8.5863377643E-02
            24   -2.6720546563E-02
            25    1.0129272238E-01
            26    1.9121245178E-02
            27    5.3219031653E-02
            28   -1.6999252710E-01
            29    5.2901404074E-02
            30   -2.0053958193E-01
            31   -3.7856288424E-02
            32   -1.0536317029E-01
            33   -1.1425099931E-13
            34   -1.9932190811E-13
            35    4.9712321401E-13
            36   -2.5611031289E-13
            37   -1.3077882167E-13
            38   -2.2858191245E-13
            39   -3.5851209846E-15
            40    3.1219933880E-13
            41    5.4427490352E-13
            42   -1.3577433639E-12
            43    6.9930822345E-13
            44    3.5695458181E-13
            45    6.2395333558E-13
            46    1.0155165212E-14
            47   -1.0454230048E-03
            48   -9.9313284332E-05
            49    5.7444954519E-05
            50   -1.0417992875E-03
            51   -9.2687940015E-04
            52    3.1315187745E-04
            53   -4.4068748412E-04
            54    2.2111742721E-04
            55   -5.5529689564E-04