[Molden Format]
Generated by Polyquant
[Atoms] (AU)
   H     1     1             0             0      0.709592
   H     2     1             0             0     -0.709592
[GTO]
   1   0
   p     1  1.00
    5.0000000000E-01    1.0000000000E+00

   2   0
   p     1  1.00
    5.0000000000E-01    1.0000000000E+00

[5D]
[7F]
[9G]

[MO]
  Sym= A
  Ene=     1.4452828106E-01
  Spin= Alpha
  Occup=     1.0000000000E+00
             1   -0.0000000000E+00
             2   -0.0000000000E+00
             3    7.0861640164E-01
             4   -0.0000000000E+00
             5   -0.0000000000E+00
             6    7.0861640164E-01
  Sym= A
  Ene=     8.1045378938E-01
  Spin= Alpha
  Occup=     0.0000000000E+00
             1    0.0000000000E+00
             2    5.5825013641E-01
             3    0.0000000000E+00
             4    0.0000000000E+00
             5    5.5825013641E-01
             6    0.0000000000E+00
  Sym= A
  Ene=     8.1045378938E-01
  Spin= Alpha
  Occup=     0.0000000000E+00
             1    5.5825013641E-01
             2    0.0000000000E+00
             3    0.0000000000E+00
             4    5.5825013641E-01
             5    0.0000000000E+00
             6    0.0000000000E+00
  Sym= A
  Ene=     9.2378670491E-01
  Spin= Alpha
  Occup=     0.0000000000E+00
             1   -0.0000000000E+00
             2   -0.0000000000E+00
             3   -7.0560676799E-01
             4   -0.0000000000E+00
             5   -0.0000000000E+00
             6    7.0560676799E-01
  Sym= A
  Ene=     1.3968106786E+00
  Spin= Alpha
  Occup=     0.0000000000E+00
             1    0.0000000000E+00
             2    1.1242326716E+00
             3    0.0000000000E+00
             4    0.0000000000E+00
             5   -1.1242326716E+00
             6    0.0000000000E+00
  Sym= A
  Ene=     1.3968106786E+00
  Spin= Alpha
  Occup=     0.0000000000E+00
             1    1.1242326716E+00
             2    0.0000000000E+00
             3    0.0000000000E+00
             4   -1.1242326716E+00
             5    0.0000000000E+00
             6    0.0000000000E+00
  Sym= A
  Ene=     1.4452828106E-01
  Spin= Beta
  Occup=     1.0000000000E+00
             1   -0.0000000000E+00
             2   -0.0000000000E+00
             3    7.0861640164E-01
             4   -0.0000000000E+00
             5   -0.0000000000E+00
             6    7.0861640164E-01
  Sym= A
  Ene=     8.1045378938E-01
  Spin= Beta
  Occup=     0.0000000000E+00
             1    0.0000000000E+00
             2    5.5825013641E-01
             3    0.0000000000E+00
             4    0.0000000000E+00
             5    5.5825013641E-01
             6    0.0000000000E+00
  Sym= A
  Ene=     8.1045378938E-01
  Spin= Beta
  Occup=     0.0000000000E+00
             1    5.5825013641E-01
             2    0.0000000000E+00
             3    0.0000000000E+00
             4    5.5825013641E-01
             5    0.0000000000E+00
             6    0.0000000000E+00
  Sym= A
  Ene=     9.2378670491E-01
  Spin= Beta
  Occup=     0.0000000000E+00
             1    0.0000000000E+00
             2    0.0000000000E+00
             3    7.0560676799E-01
             4    0.0000000000E+00
             5    0.0000000000E+00
             6   -7.0560676799E-01
  Sym= A
  Ene=     1.3968106786E+00
  Spin= Beta
  Occup=     0.0000000000E+00
             1    0.0000000000E+00
             2    1.1242326716E+00
             3    0.0000000000E+00
             4    0.0000000000E+00
             5   -1.1242326716E+00
             6    0.0000000000E+00
  Sym= A
  Ene=     1.3968106786E+00
  Spin= Beta
  Occup=     0.0000000000E+00
             1    1.1242326716E+00
             2    0.0000000000E+00
             3    0.0000000000E+00
             4   -1.1242326716E+00
             5    0.0000000000E+00
             6    0.0000000000E+00
