[Molden Format]
Generated by Polyquant
[Atoms] (AU)
   H     1     1             0             0      0.709592
   H     2     1             0             0     -0.709592
[GTO]
   1   0
   g     1  1.00
    5.0000000000E-01    1.0000000000E+00

   2   0
   g     1  1.00
    5.0000000000E-01    1.0000000000E+00

[5D]
[7F]
[9G]

[MO]
  Sym= A
  Ene=     2.0000321079E+00
  Spin= Alpha
  Occup=     1.0000000000E+00
             1    8.1351757090E-01
             2    1.0388108169E-14
             3    1.6056479968E-14
             4    1.0023473882E-14
             5   -5.7107275427E-15
             6    4.3626286966E-16
             7   -2.4132961367E-15
             8   -2.5354507288E-15
             9    2.8108169719E-16
            10    8.1351757090E-01
            11    1.0654845160E-14
            12    1.6284057352E-14
            13    1.1757098948E-14
            14   -5.6693846820E-15
            15    1.8663504350E-16
            16   -2.5161536849E-15
            17   -9.9649894592E-15
            18   -2.8108169719E-16
  Sym= A
  Ene=     2.3217759601E+00
  Spin= Alpha
  Occup=     0.0000000000E+00
             1    2.6220361268E-15
             2    1.3656598021E-13
             3    2.6931833622E-13
             4   -5.9443802313E-15
             5   -5.6572523975E-15
             6   -3.3775999946E-01
             7    6.2294091810E-01
             8    1.6309692790E-15
             9   -3.5895303927E-16
            10    2.7996392907E-15
            11    1.0549002551E-13
            12    2.0720801474E-13
            13   -6.9717617531E-15
            14   -5.2195756956E-15
            15   -3.3775999946E-01
            16    6.2294091810E-01
            17    1.4418496551E-15
            18   -3.7899199502E-16
  Sym= A
  Ene=     2.3217759601E+00
  Spin= Alpha
  Occup=     0.0000000000E+00
             1    7.4646535613E-16
             2   -2.4903630274E-13
             3    1.4574715101E-13
             4    1.9946142753E-16
             5    5.2829839296E-15
             6    6.2294091810E-01
             7    3.3775999946E-01
             8   -1.3324762963E-15
             9   -1.2512736491E-15
            10    1.3114157397E-15
            11   -1.9451345689E-13
            12    1.1240347280E-13
            13   -9.1127609248E-17
            14    5.4215381712E-15
            15    6.2294091810E-01
            16    3.3775999946E-01
            17   -9.0532728051E-16
            18   -1.0562658314E-15
  Sym= A
  Ene=     2.3678201797E+00
  Spin= Alpha
  Occup=     0.0000000000E+00
             1    5.9218427221E-15
             2   -3.1748930896E-15
             3   -2.2871719858E-14
             4    9.5029041449E-04
             5    7.7912224878E-01
             6   -6.5173461705E-15
             7    1.5907704494E-15
             8   -8.5119767347E-16
             9   -8.1566401744E-15
            10    5.9314269692E-15
            11   -3.0461187854E-15
            12   -2.6032105583E-14
            13    9.5029041449E-04
            14    7.7912224878E-01
            15   -6.6789271136E-15
            16    2.4832488641E-15
            17   -8.4509796083E-16
            18   -1.5584325681E-14
  Sym= A
  Ene=     2.3678201797E+00
  Spin= Alpha
  Occup=     0.0000000000E+00
             1   -1.2141561670E-14
             2    8.7342662423E-15
             3    1.0798422460E-14
             4    7.7912224878E-01
             5   -9.5029041449E-04
             6   -3.2091241607E-15
             7    5.4546694244E-15
             8    1.1557183661E-14
             9   -1.7881082168E-16
            10   -1.0861375150E-14
            11    5.6950963423E-15
            12    1.2047883609E-14
            13    7.7912224878E-01
            14   -9.5029041449E-04
            15   -2.3754507805E-15
            16    4.7896342900E-15
            17    1.3998502434E-14
            18   -2.6422564556E-17
  Sym= A
  Ene=     2.4187430906E+00
  Spin= Alpha
  Occup=     0.0000000000E+00
             1   -1.5340349975E-14
             2   -7.8846455752E-02
             3    8.0368119115E-01
             4   -9.9178583602E-15
             5    2.2651916237E-14
             6   -2.4037315499E-14
             7   -2.7155221054E-13
             8   -5.4672504463E-15
             9    1.3945847092E-15
            10   -1.5335020994E-14
            11   -7.8846455752E-02
            12    8.0368119115E-01
            13   -1.0485039929E-14
            14    2.3748776701E-14
            15   -1.8843988160E-14
            16   -2.0195893927E-13
            17   -5.3882453684E-15
            18    1.7750315000E-15
  Sym= A
  Ene=     2.4187430906E+00
  Spin= Alpha
  Occup=     0.0000000000E+00
             1   -1.3452748189E-14
             2    8.0368119115E-01
             3    7.8846455752E-02
             4   -7.9055736769E-15
             5    5.2411370100E-15
             6    2.5195699775E-13
             7   -2.6254585769E-14
             8    2.2629490849E-15
             9    2.6715407902E-16
            10   -1.0727541156E-14
            11    8.0368119115E-01
            12    7.8846455752E-02
            13   -8.5275662104E-15
            14    5.2218305037E-15
            15    1.8869183402E-13
            16   -2.1473280270E-14
            17    1.4606219929E-15
            18    1.4872086520E-16
  Sym= A
  Ene=     2.4698811045E+00
  Spin= Alpha
  Occup=     0.0000000000E+00
             1   -2.7953447377E-17
             2   -7.2701833691E-17
             3   -2.2165987083E-15
             4    1.6363345458E-16
             5    2.1218139259E-14
             6    1.0563112094E-15
             7    1.0984594681E-15
             8    4.0200373424E-16
             9    5.5825013641E-01
            10    2.7953447378E-17
            11   -7.8337746686E-17
            12   -2.4052563127E-15
            13    1.6321413183E-16
            14    1.1818412451E-14
            15    1.0721476492E-15
            16    1.1211381818E-15
            17    4.0200373424E-16
            18    5.5825013641E-01
  Sym= A
  Ene=     2.4698811045E+00
  Spin= Alpha
  Occup=     0.0000000000E+00
             1   -1.0739924919E-14
             2   -3.7678412330E-15
             3    7.5463785027E-15
             4   -2.2433006611E-14
             5    2.0745558509E-15
             6    2.4141590897E-15
             7   -8.2548270648E-16
             8    5.5825013641E-01
             9   -6.3743586175E-16
            10    2.9553646994E-14
            11   -3.3180969104E-15
            12    7.6875967826E-15
            13   -1.3477805197E-14
            14    5.8633983326E-16
            15    1.9536317022E-15
            16   -9.9797645336E-16
            17    5.5825013641E-01
            18   -1.6657160673E-16
  Sym= A
  Ene=     2.6025699715E+00
  Spin= Alpha
  Occup=     0.0000000000E+00
             1    6.3385227837E-01
             2   -6.5346869132E-15
             3    3.6951112614E-17
             4   -1.0657166393E-14
             5   -6.3184626642E-16
             6   -2.0143002847E-16
             7   -2.5282066077E-16
             8    4.0458981090E-14
             9    3.0846298277E-15
            10   -6.3385227837E-01
            11    1.0231006158E-14
            12    3.2283032707E-16
            13    1.2585838387E-14
            14    6.5033998413E-16
            15    7.1405460934E-16
            16    7.5526147951E-16
            17   -5.1055345349E-15
            18   -3.0353911759E-15
  Sym= A
  Ene=     2.6560393394E+00
  Spin= Alpha
  Occup=     0.0000000000E+00
             1    6.8889222607E-16
             2    7.4081981189E-02
             3   -6.3240652726E-01
             4   -6.1690810102E-16
             5    3.3715822687E-15
             6    1.3077063645E-14
             7    1.1538286114E-13
             8    3.5629804928E-16
             9    7.1599882059E-17
            10   -9.7186061544E-16
            11   -7.4081981189E-02
            12    6.3240652726E-01
            13   -1.5738314368E-15
            14    9.1858809160E-16
            15   -5.3799499403E-15
            16   -3.7339558278E-14
            17   -2.2336992967E-16
            18    9.2106365569E-17
  Sym= A
  Ene=     2.6560393394E+00
  Spin= Alpha
  Occup=     0.0000000000E+00
             1   -8.5783152662E-15
             2   -6.3240652726E-01
             3   -7.4081981189E-02
             4    6.7732546206E-15
             5    3.2882219835E-15
             6   -1.0394886247E-13
             7    1.4909323615E-14
             8   -3.0847596324E-15
             9   -1.0533151442E-16
            10    8.0898285314E-15
            11    6.3240652726E-01
            12    7.4081981189E-02
            13   -3.0467381031E-15
            14   -2.8446524157E-15
            15    3.5735872398E-14
            16   -4.3659127487E-15
            17    2.6396369467E-15
            18    1.2948359334E-16
  Sym= A
  Ene=     2.7220838158E+00
  Spin= Alpha
  Occup=     0.0000000000E+00
             1    1.2982073732E-14
             2    4.3302390542E-15
             3    6.5203919134E-16
             4    6.5194482582E-01
             5    4.7004099094E-03
             6    2.2862739443E-15
             7   -1.2039602299E-15
             8    9.8630666770E-16
             9    5.4693435269E-16
            10   -1.0350965913E-14
            11   -5.1617000932E-15
            12   -1.5139030818E-15
            13   -6.5194482582E-01
            14   -4.7004099094E-03
            15   -2.4069303855E-15
            16    6.8673412455E-17
            17    6.7809243550E-15
            18   -6.0509074446E-16
  Sym= A
  Ene=     2.7220838158E+00
  Spin= Alpha
  Occup=     0.0000000000E+00
             1    7.1807504857E-16
             2    2.7444084624E-15
             3    2.1924817875E-15
             4   -4.7004099094E-03
             5    6.5194482582E-01
             6    1.0501436018E-15
             7    1.4637349508E-15
             8   -1.6234116979E-15
             9   -8.2411984276E-15
            10   -6.7244121387E-16
            11   -2.9467888533E-15
            12   -9.4752702578E-16
            13    4.7004099094E-03
            14   -6.5194482582E-01
            15   -1.2134515074E-15
            16   -1.0072605665E-15
            17    2.8155669178E-16
            18    2.2473338546E-16
  Sym= A
  Ene=     2.8341951565E+00
  Spin= Alpha
  Occup=     0.0000000000E+00
             1    3.3458933676E-16
             2   -9.9193386511E-14
             3    6.9013308585E-15
             4   -1.5999192483E-15
             5   -1.2630459753E-15
             6    7.0432861314E-01
             7    4.2451333890E-02
             8    1.4164697880E-15
             9    2.6439132357E-16
            10   -6.2711170762E-16
            11    2.6757366823E-14
            12   -3.3305164498E-15
            13    2.7699188162E-15
            14    1.0233095626E-15
            15   -7.0432861314E-01
            16   -4.2451333890E-02
            17   -1.7911386938E-15
            18   -2.5080533397E-16
  Sym= A
  Ene=     2.8341951565E+00
  Spin= Alpha
  Occup=     0.0000000000E+00
             1   -5.0638709236E-16
             2   -5.4671988201E-15
             3   -1.0919443597E-13
             4   -2.4462419743E-16
             5    4.3724198340E-16
             6    4.2451333890E-02
             7   -7.0432861314E-01
             8   -4.0732272351E-16
             9    3.6986544529E-15
            10    4.7831418026E-16
            11    3.4848229280E-15
            12    2.8928385906E-14
            13    1.1272324191E-15
            14   -1.6109410933E-15
            15   -4.2451333890E-02
            16    7.0432861314E-01
            17    6.2291687653E-16
            18   -3.7158107226E-15
  Sym= A
  Ene=     3.0032778361E+00
  Spin= Alpha
  Occup=     0.0000000000E+00
             1    2.0188948337E-15
             2    1.3646836951E-16
             3   -2.1109184301E-16
             4    2.5894188695E-16
             5    2.4929005160E-16
             6    3.0006105902E-16
             7   -2.4650582053E-15
             8   -1.3392568653E-16
             9   -1.1242326716E+00
            10   -1.7642003636E-15
            11   -2.5751983521E-17
            12   -2.2254649089E-16
            13   -3.9972210277E-16
            14    5.2503403142E-15
            15   -4.0435165176E-16
            16    2.4147693042E-15
            17   -1.3392568653E-16
            18    1.1242326716E+00
  Sym= A
  Ene=     3.0032778361E+00
  Spin= Alpha
  Occup=     0.0000000000E+00
             1   -1.5084395718E-14
             2   -2.2025039465E-15
             3   -2.5463847364E-17
             4    2.4117661980E-15
             5    5.6554299458E-16
             6   -8.7540316462E-16
             7   -3.7151161383E-16
             8    1.1242326716E+00
             9    6.9699867161E-29
            10    1.0182699727E-14
            11    1.4829174883E-15
            12    2.5672211064E-17
            13   -9.5188978476E-16
            14   -5.6337933214E-16
            15    1.2650285104E-15
            16    3.9505077980E-16
            17   -1.1242326716E+00
            18   -7.1403500654E-29
  Sym= A
  Ene=     2.0000321079E+00
  Spin= Beta
  Occup=     1.0000000000E+00
             1    8.1351757090E-01
             2    1.0326990567E-14
             3    1.5747791758E-14
             4    1.0113279521E-14
             5   -5.6588362402E-15
             6    8.4335919303E-17
             7   -2.5876740172E-15
             8   -2.3588220874E-15
             9   -2.3121652490E-16
            10    8.1351757090E-01
            11    1.0713300182E-14
            12    1.5978120309E-14
            13    1.1560061916E-14
            14   -5.7121047800E-15
            15    6.2227683572E-16
            16   -2.3584914951E-15
            17   -1.0164713912E-14
            18    2.3121652490E-16
  Sym= A
  Ene=     2.3217759601E+00
  Spin= Beta
  Occup=     0.0000000000E+00
             1    2.7417822143E-15
             2   -3.8371401700E-14
             3    2.9322538752E-13
             4   -1.2190854464E-14
             5   -1.1784727154E-15
             6    9.4963394371E-02
             7    7.0222443592E-01
             8   -1.8864991750E-15
             9   -6.0670535555E-16
            10    2.8581688609E-15
            11   -2.8741754063E-14
            12    2.2814829094E-13
            13   -1.2152843311E-14
            14   -1.7688649286E-15
            15    9.4963394371E-02
            16    7.0222443592E-01
            17   -1.7871205727E-15
            18   -8.1406420104E-16
  Sym= A
  Ene=     2.3217759601E+00
  Spin= Beta
  Occup=     0.0000000000E+00
             1   -8.3189105839E-16
             2   -2.8829727698E-13
             3   -4.0614337555E-14
             4   -1.2018067975E-14
             5    5.0535450199E-15
             6    7.0222443592E-01
             7   -9.4963394371E-02
             8   -3.2973728045E-16
             9   -4.4781204675E-16
            10   -8.1824313303E-16
            11   -2.2385230382E-13
            12   -3.2013564038E-14
            13   -1.1624866181E-14
            14    5.4869655703E-15
            15    7.0222443592E-01
            16   -9.4963394371E-02
            17    1.2647672891E-16
            18   -1.1060948029E-15
  Sym= A
  Ene=     2.3678201797E+00
  Spin= Beta
  Occup=     0.0000000000E+00
             1    6.0906861231E-15
             2   -1.5593662392E-14
             3   -1.2534167047E-14
             4   -2.4085693154E-03
             5    7.7911910540E-01
             6   -4.4753698125E-15
             7    2.3861743054E-15
             8    2.2052852302E-15
             9   -9.3717555201E-15
            10    5.8555288258E-15
            11   -1.5883039088E-14
            12   -1.1257721456E-14
            13   -2.4085693154E-03
            14    7.7911910540E-01
            15   -4.6085009361E-15
            16    1.1587955448E-15
            17    2.1999244381E-15
            18   -1.6202219870E-14
  Sym= A
  Ene=     2.3678201797E+00
  Spin= Beta
  Occup=     0.0000000000E+00
             1   -1.1730001106E-14
             2    1.5377693248E-14
             3    2.7636324893E-15
             4    7.7911910540E-01
             5    2.4085693154E-03
             6    1.1771290226E-14
             7    9.5274599082E-15
             8    9.9321765642E-15
             9    8.8177392769E-17
            10   -1.1115052730E-14
            11    1.3181631030E-14
            12    4.0394540591E-15
            13    7.7911910540E-01
            14    2.4085693154E-03
            15    1.2896915988E-14
            16    9.6299376016E-15
            17    1.2376975302E-14
            18   -3.9962557590E-16
  Sym= A
  Ene=     2.4187430906E+00
  Spin= Beta
  Occup=     0.0000000000E+00
             1   -1.1272743775E-14
             2    8.0681222378E-01
             3   -3.4267421251E-02
             4   -1.4723499161E-14
             5    1.4861738782E-14
             6    2.5986398929E-13
             7    9.1492419479E-15
             8    7.4702482858E-15
             9    3.6419711955E-16
            10   -8.4068053992E-15
            11    8.0681222378E-01
            12   -3.4267421251E-02
            13   -1.3365744676E-14
            14    1.4732690895E-14
            15    1.9249112252E-13
            16    8.5073646147E-15
            17    6.6586096875E-15
            18   -3.1038352109E-16
  Sym= A
  Ene=     2.4187430906E+00
  Spin= Beta
  Occup=     0.0000000000E+00
             1   -1.6686370755E-14
             2    3.4267421251E-02
             3    8.0681222378E-01
             4   -3.8567172157E-15
             5    1.3777846154E-14
             6    1.0861559005E-14
             7   -2.6550349888E-13
             8   -3.6372194021E-15
             9    6.4404264695E-16
            10   -1.6426370256E-14
            11    3.4267421251E-02
            12    8.0681222378E-01
            13   -3.6696935631E-15
            14    1.0867762726E-14
            15    1.0190528885E-14
            16   -1.9632341709E-13
            17   -3.6692739670E-15
            18    5.7949771378E-16
  Sym= A
  Ene=     2.4698811045E+00
  Spin= Beta
  Occup=     0.0000000000E+00
             1    3.1840295130E-18
             2   -7.7670886225E-17
             3   -8.7728101444E-16
             4    1.6226810343E-16
             5    2.2498611177E-14
             6    1.0902810804E-15
             7    7.5003458554E-16
             8    1.7456636297E-15
             9    5.5825013641E-01
            10   -3.1840295127E-18
            11   -7.5208685923E-17
            12   -8.8774007882E-16
            13    1.6206417275E-16
            14    1.3097730856E-14
            15    1.1060685140E-15
            16    7.7282188333E-16
            17    1.7456636297E-15
            18    5.5825013641E-01
  Sym= A
  Ene=     2.4698811045E+00
  Spin= Beta
  Occup=     0.0000000000E+00
             1   -9.8451342880E-15
             2   -1.0378132385E-14
             3    3.3031809354E-15
             4   -1.9748807399E-14
             5   -2.8537548075E-15
             6   -9.6606511357E-17
             7    1.2793488532E-15
             8    5.5825013641E-01
             9   -1.5351650077E-15
            10    2.8690216146E-14
            11   -1.0289288542E-14
            12    8.2423765559E-15
            13   -1.1460936718E-14
            14   -3.8117762580E-15
            15    8.5799160154E-16
            16    2.9901956735E-15
            17    5.5825013641E-01
            18   -1.9561622517E-15
  Sym= A
  Ene=     2.6025699715E+00
  Spin= Beta
  Occup=     0.0000000000E+00
             1    6.3385227837E-01
             2    2.3323720772E-14
             3    3.7133043642E-16
             4   -5.4590340524E-16
             5    2.6233571358E-15
             6    1.4594951325E-16
             7   -2.6671315350E-16
             8    3.9681565436E-14
             9   -1.9101014711E-15
            10   -6.3385227837E-01
            11   -1.9418954956E-14
            12   -2.0563824639E-16
            13    1.5934531903E-15
            14   -2.9778722686E-15
            15   -1.5924859097E-16
            16    4.0089785944E-16
            17   -5.8618754051E-15
            18    1.9044929564E-15
  Sym= A
  Ene=     2.6560393394E+00
  Spin= Beta
  Occup=     0.0000000000E+00
             1   -2.1972288944E-15
             2    6.8836452955E-02
             3   -6.3299897188E-01
             4   -1.7604566780E-16
             5    5.6714684077E-16
             6    1.2462757910E-14
             7    1.1270193050E-13
             8   -1.9078681338E-15
             9   -2.6425415047E-17
            10    1.9239141865E-15
            11   -6.8836452955E-02
            12    6.3299897188E-01
            13   -1.9278358254E-15
            14   -2.3828363893E-15
            15   -4.4369584424E-15
            16   -4.0111622542E-14
            17   -2.4391795051E-15
            18    3.5774973025E-17
  Sym= A
  Ene=     2.6560393394E+00
  Spin= Beta
  Occup=     0.0000000000E+00
             1    2.1280756326E-14
             2   -6.3299897188E-01
             3   -6.8836452955E-02
             4    1.7007840173E-15
             5    1.1545532878E-15
             6   -1.0352762509E-13
             7    1.2316099223E-14
             8   -3.1615690082E-15
             9    3.0159771690E-16
            10   -2.1955184601E-14
            11    6.3299897188E-01
            12    6.8836452955E-02
            13    1.2380307931E-15
            14   -9.3280332506E-16
            15    3.1600892934E-14
            16   -5.7466250241E-15
            17    2.5660771754E-15
            18   -3.0275243165E-16
  Sym= A
  Ene=     2.7220838158E+00
  Spin= Beta
  Occup=     0.0000000000E+00
             1    2.2512345965E-15
             2    9.3037651455E-16
             3    8.6182725153E-16
             4    6.5194261716E-01
             5    4.9973687822E-03
             6    7.3001504601E-15
             7    4.0726718354E-15
             8    7.4173007480E-16
             9    1.3757843640E-15
            10   -5.5104642631E-17
            11    6.9139712209E-16
            12   -9.8047514296E-16
            13   -6.5194261716E-01
            14   -4.9973687822E-03
            15   -6.7661586069E-15
            16   -4.0009839102E-15
            17    6.5274454438E-15
            18   -1.4374153753E-15
  Sym= A
  Ene=     2.7220838158E+00
  Spin= Beta
  Occup=     0.0000000000E+00
             1    2.7295676441E-15
             2   -7.4808719832E-16
             3    4.6791998258E-16
             4    4.9973687822E-03
             5   -6.5194261716E-01
             6   -6.6167700584E-15
             7    4.0939167604E-15
             8    1.3906718110E-15
             9    7.9755111315E-15
            10   -2.5922657218E-15
            11    1.0044512329E-15
            12    3.6028321580E-15
            13   -4.9973687822E-03
            14    6.5194261716E-01
            15    6.2983536180E-15
            16   -3.3973176909E-15
            17   -5.0843116130E-16
            18    4.1915683315E-17
  Sym= A
  Ene=     2.8341951565E+00
  Spin= Beta
  Occup=     0.0000000000E+00
             1    1.8096685426E-16
             2   -9.9021877483E-14
             3   -1.2058723986E-14
             4   -5.4985030284E-15
             5   -6.5937170583E-15
             6    6.9947117358E-01
             7   -9.2849277644E-02
             8    1.8367999604E-15
             9   -1.2539733724E-15
            10    2.7102087811E-16
            11    2.1959610308E-14
            12    4.2347830394E-15
            13    6.6846814877E-15
            14    6.4080221463E-15
            15   -6.9947117358E-01
            16    9.2849277644E-02
            17   -1.0994139253E-15
            18    1.2639828712E-15
  Sym= A
  Ene=     2.8341951565E+00
  Spin= Beta
  Occup=     0.0000000000E+00
             1   -5.8833398765E-16
             2    1.1133665447E-14
             3   -1.0819274836E-13
             4    4.5008817195E-15
             5   -1.7886383797E-15
             6   -9.2849277644E-02
             7   -6.9947117358E-01
             8   -1.5708544747E-15
             9    2.5289624045E-16
            10    1.2626088370E-16
            11   -3.4798524424E-15
            12    2.9404126974E-14
            13   -4.8372708014E-15
            14    3.2674391860E-15
            15    9.2849277644E-02
            16    6.9947117358E-01
            17    5.0463234944E-17
            18   -2.7241153621E-16
  Sym= A
  Ene=     3.0032778361E+00
  Spin= Beta
  Occup=     0.0000000000E+00
             1   -1.3174984911E-15
             2    1.1263574667E-17
             3   -3.0637133248E-17
             4    1.0021633095E-15
             5    1.1284087659E-16
             6   -5.5934489975E-16
             7   -1.6018633242E-16
             8    9.0191597832E-17
             9   -1.1242326716E+00
            10    8.4745474016E-16
            11    3.9848369559E-16
            12   -2.3906570576E-17
            13   -6.9826359780E-16
            14    4.8325042903E-15
            15    9.8081502734E-16
            16    2.1639092823E-16
            17    9.0191597832E-17
            18    1.1242326716E+00
  Sym= A
  Ene=     3.0032778361E+00
  Spin= Beta
  Occup=     0.0000000000E+00
             1   -1.5214623011E-14
             2   -2.2042708977E-15
             3   -2.4906120136E-17
             4    2.4101463215E-15
             5    5.6426544038E-16
             6   -8.7052136902E-16
             7   -3.7135427214E-16
             8    1.1242326716E+00
             9   -2.8537793458E-28
            10    1.0040590286E-14
            11    1.4803313315E-15
            12    2.6641302510E-17
            13   -9.4785870943E-16
            14   -5.6274282703E-16
            15    1.2600011139E-15
            16    3.9489250666E-16
            17   -1.1242326716E+00
            18    2.8412418965E-28
